LAMMPS data file
# Generated by Playmol on 19-Jul-2017 at 21:44:57

12 atom types
12 bond types
17 angle types
21 dihedral types
5 improper types

5000 atoms
4750 bonds
6500 angles
5250 dihedrals
1250 impropers

-22.454822998603152 22.454822998603152 xlo xhi
-22.454822998603152 22.454822998603152 ylo yhi
-22.454822998603152 22.454822998603152 zlo zhi

Masses

1 12.011 # CR
2 12.011 # CC
3 12.011 # CD
4 14.01 # NA
5 1.008 # H5
6 1.008 # H4
7 15.035 # C3
8 14.027 # C3a1
9 15.035 # C3a2
10 12.01 # C_TCB
11 10.81 # B_TCB
12 14.01 # N_TCB

Pair Coeffs

1 0.0859942639 3.4 # CR
2 0.0859942639 3.4 # CC
3 0.0859942639 3.4 # CD
4 0.1700047801 3.25 # NA
5 0.0150095602 1.782 # H5
6 0.0150095602 2.511 # H4
7 0.1886711281 3.813 # C3
8 0.1424952199 3.822 # C3a1
9 0.1847036329 3.902 # C3a2
10 0.0659894837 3.3 # C_TCB
11 0.0002390057 3.581 # B_TCB
12 0.1218929254 3.2 # N_TCB

Bond Coeffs

1 400.095602 1.325 # CR NA
2 359.942639 1.378 # NA CD
3 359.942639 1.378 # NA CC
4 409.894837 1.343 # CC CD
5 385.038241 1.07 # CC H4
6 385.038241 1.07 # CD H4
7 380.01912 1.07 # CR H5
8 336.759082 1.472 # NA C3
9 336.759082 1.472 # NA C3a1
10 259.799235 1.526 # C3a1 C3a2
11 350.0 1.572 # B_TCB C_TCB
12 650.0 1.157 # C_TCB N_TCB

Angle Coeffs

1 49.9521988528 125.7 # CC NA C3a1
2 49.9521988528 125.7 # CD NA C3
3 49.9521988528 126.3 # CR NA C3a1
4 49.9521988528 126.3 # CR NA C3
5 70.0286806883 112.2 # NA C3a1 C3a2
6 119.9808795411 107.1 # CC CD NA
7 119.9808795411 107.1 # CD CC NA
8 119.9808795411 108 # CR NA CC
9 119.9808795411 108 # CR NA CD
10 119.9808795411 109.9 # NA CR NA
11 30.1147227533 122.1 # H4 CC NA
12 30.1147227533 122.1 # H4 CD NA
13 30.1147227533 125.7 # H5 CR NA
14 30.1147227533 130.7 # CC CD H4
15 30.1147227533 130.7 # CD CC H4
16 49.95219885 109.47 # C_TCB B_TCB C_TCB
17 49.95219885 180.0 # B_TCB C_TCB N_TCB

Dihedral Coeffs

1 12.0004780115 2 180 0.0 # NA CR NA CC
2 12.0004780115 2 180 0.0 # NA CR NA CD
3 2 2 180 0.0 # NA CR NA C3
4 2 2 180 0.0 # NA CR NA C3a1
5 1.5 2 180 0.0 # H5 CR NA CC
6 1.5 2 180 0.0 # H5 CR NA CD
7 1.5 2 180 0.0 # H5 CR NA C3
8 1.5 2 180 0.0 # H5 CR NA C3a1
9 12.0004780115 2 180 0.0 # CC CD NA CR
10 12.0004780115 2 180 0.0 # CD CC NA CR
11 2 2 180 0.0 # CC CD NA C3
12 2 2 180 0.0 # CD CC NA C3a1
13 2 2 180 0.0 # H4 CC NA CR
14 2 2 180 0.0 # H4 CD NA CR
15 1.5 2 180 0.0 # H4 CD NA C3
16 1.5 2 180 0.0 # NA CC CD H4
17 1.5 2 180 0.0 # NA CD CC H4
18 12.0004780115 2 180 0.0 # NA CC CD NA
19 1.5 2 180 0.0 # H4 CC CD H4
20 -0.1780592734 1 0 0.0 # C3a2 C3a1 NA CC
21 -0.2358986616 1 0 0.0 # C3a2 C3a1 NA CR

Improper Coeffs

1 1.0999043977 -1 2 # CR NA NA H5
2 1.0999043977 -1 2 # CC NA CD H4
3 1.0999043977 -1 2 # CD NA CC H4
4 1 -1 2 # NA CD CR C3
5 1 -1 2 # NA CC CR C3a1

Atoms

1 1 1 -0.0124 -5.014443 -11.002983 9.388749 # C1
2 1 2 -0.2067 -4.152050 -12.996620 9.600561 # C2
3 1 3 -0.1705 -3.183901 -12.102833 9.860333 # C3
4 1 4 -0.0352 -3.741471 -10.850165 9.723134 # N1
5 1 5 0.2276 -5.712750 -10.211885 9.211460 # H1
6 1 6 0.2555 -4.131729 -14.066425 9.598371 # H2
7 1 6 0.2382 -2.157591 -12.243918 10.128069 # H3
8 1 4 -0.0205 -5.293807 -12.283269 9.306613 # N2
9 1 7 0.2823 -3.038637 -9.571276 9.916141 # C4
10 1 8 0.2524 -6.592264 -12.869925 8.936977 # C5
11 1 9 0.0319 -7.537597 -11.839449 8.326124 # C6
12 2 1 -0.0124 -16.159559 -3.631295 -3.384308 # C1
13 2 2 -0.2067 -16.445443 -2.422817 -5.179030 # C2
14 2 3 -0.1705 -15.655227 -3.458546 -5.505335 # C3
15 2 4 -0.0352 -15.483269 -4.212148 -4.364546 # N1
16 2 5 0.2276 -16.220135 -3.981000 -2.374884 # H1
17 2 6 0.2555 -16.815064 -1.613023 -5.772758 # H2
18 2 6 0.2382 -15.203748 -3.724961 -6.438121 # H3
19 2 4 -0.0205 -16.750306 -2.551454 -3.841348 # N2
20 2 7 0.2823 -14.686078 -5.445316 -4.261756 # C4
21 2 8 0.2524 -17.576154 -1.614128 -3.062772 # C5
22 2 9 0.0319 -17.428468 -1.827600 -1.559012 # C6
23 3 1 -0.0124 -2.615358 8.282516 -16.648914 # C1
24 3 2 -0.2067 -2.625555 10.464929 -16.660912 # C2
25 3 3 -0.1705 -3.887817 10.051428 -16.462520 # C3
26 3 4 -0.0352 -3.866729 8.673599 -16.457218 # N1
27 3 5 0.2276 -2.278327 7.268022 -16.694887 # H1
28 3 6 0.2555 -2.217300 11.451540 -16.730384 # H2
29 3 6 0.2382 -4.791160 10.608377 -16.325846 # H3
30 3 4 -0.0205 -1.842809 9.336610 -16.775321 # N2
31 3 7 0.2823 -5.034700 7.797362 -16.270575 # C4
32 3 8 0.2524 -0.392212 9.328958 -17.025305 # C5
33 3 9 0.0319 0.111132 7.954753 -17.457605 # C6
34 4 1 -0.0124 -15.136563 -15.819367 7.222606 # C1
35 4 2 -0.2067 -13.302149 -14.766907 7.761521 # C2
36 4 3 -0.1705 -13.494432 -14.603786 6.442404 # C3
37 4 4 -0.0352 -14.654356 -15.272440 6.116273 # N1
38 4 5 0.2276 -16.030104 -16.403893 7.291980 # H1
39 4 6 0.2555 -12.523572 -14.409513 8.402604 # H2
40 4 6 0.2382 -12.915652 -14.076897 5.712814 # H3
41 4 4 -0.0205 -14.346049 -15.533988 8.231353 # N2
42 4 7 0.2823 -15.246905 -15.358892 4.771581 # C4
43 4 8 0.2524 -14.517935 -15.975155 9.625129 # C5
44 4 9 0.0319 -15.549418 -17.092433 9.753220 # C6
45 5 1 -0.0124 4.203092 -11.123989 15.283282 # C1
46 5 2 -0.2067 2.026181 -11.270622 15.335555 # C2
47 5 3 -0.1705 2.362090 -10.563827 14.244109 # C3
48 5 4 -0.0352 3.737332 -10.479121 14.223641 # N1
49 5 5 0.2276 5.235148 -11.234303 15.543263 # H1
50 5 6 0.2555 1.067056 -11.558665 15.712400 # H2
51 5 6 0.2382 1.752004 -10.117449 13.486850 # H3
52 5 4 -0.0205 3.198732 -11.612402 15.973672 # N2
53 5 7 0.2823 4.540390 -9.790718 13.199930 # C4
54 5 8 0.2524 3.293188 -12.372181 17.230890 # C5
55 5 9 0.0319 4.679343 -12.273625 17.861396 # C6
56 6 1 -0.0124 5.322058 13.103928 15.108101 # C1
57 6 2 -0.2067 5.242814 11.078261 14.299664 # C2
58 6 3 -0.1705 6.452324 11.248419 14.858037 # C3
59 6 4 -0.0352 6.488511 12.529764 15.363734 # N1
60 6 5 0.2276 5.044923 14.101714 15.377396 # H1
61 6 6 0.2555 4.816888 10.232284 13.801859 # H2
62 6 6 0.2382 7.283181 10.579250 14.940431 # H3
63 6 4 -0.0205 4.549175 12.256932 14.468434 # N2
64 6 7 0.2823 7.627773 13.144993 16.063991 # C4
65 6 8 0.2524 3.184070 12.517932 13.983510 # C5
66 6 9 0.0319 2.839986 14.004519 14.002022 # C6
67 7 1 -0.0124 -18.568046 15.232129 -5.240197 # C1
68 7 2 -0.2067 -18.689581 13.080528 -4.895208 # C2
69 7 3 -0.1705 -17.815469 13.285556 -5.893978 # C3
70 7 4 -0.0352 -17.748603 14.646280 -6.100963 # N1
71 7 5 0.2276 -18.735256 16.285561 -5.155221 # H1
72 7 6 0.2555 -19.022474 12.174023 -4.434414 # H2
73 7 6 0.2382 -17.240086 12.592093 -6.470989 # H3
74 7 4 -0.0205 -19.150160 14.317536 -4.499530 # N2
75 7 7 0.2823 -16.910745 15.322279 -7.104858 # C4
76 7 8 0.2524 -20.147228 14.556451 -3.443330 # C5
77 7 9 0.0319 -20.709188 15.974409 -3.491000 # C6
78 8 1 -0.0124 20.628069 -14.894322 18.265914 # C1
79 8 2 -0.2067 20.640847 -16.516830 19.725530 # C2
80 8 3 -0.1705 20.669413 -17.068222 18.501276 # C3
81 8 4 -0.0352 20.660987 -16.033928 17.590755 # N1
82 8 5 0.2276 20.613985 -13.914365 17.836513 # H1
83 8 6 0.2555 20.636503 -16.969850 20.694888 # H2
84 8 6 0.2382 20.694752 -18.094186 18.198529 # H3
85 8 4 -0.0205 20.615184 -15.149822 19.553733 # N2
86 8 7 0.2823 20.684586 -16.178715 16.126083 # C4
87 8 8 0.2524 20.554800 -14.156766 20.638619 # C5
88 8 9 0.0319 20.174881 -12.769205 20.129687 # C6
89 9 1 -0.0124 17.857490 -20.692402 0.672486 # C1
90 9 2 -0.2067 17.656603 -20.692198 2.845691 # C2
91 9 3 -0.1705 16.420368 -20.684506 2.320989 # C3
92 9 4 -0.0352 16.561962 -20.684724 0.950283 # N1
93 9 5 0.2276 18.285819 -20.694528 -0.308040 # H1
94 9 6 0.2555 17.981951 -20.694630 3.865025 # H2
95 9 6 0.2382 15.461163 -20.678946 2.795114 # H3
96 9 4 -0.0205 18.544150 -20.697057 1.791593 # N2
97 9 7 0.2823 15.461186 -20.677639 -0.026972 # C4
98 9 8 0.2524 20.010960 -20.681252 1.914070 # C5
99 9 9 0.0319 20.695706 -20.326292 0.597331 # C6
100 10 1 -0.0124 -0.021455 -18.724069 14.820723 # C1
101 10 2 -0.2067 -2.177841 -18.859704 15.128588 # C2
102 10 3 -0.1705 -1.605937 -19.880778 15.787362 # C3
103 10 4 -0.0352 -0.246433 -19.783017 15.584687 # N1
104 10 5 0.2276 0.938007 -18.385878 14.489123 # H1
105 10 6 0.2555 -3.206028 -18.579163 15.033571 # H2
106 10 6 0.2382 -2.039867 -20.661219 16.376867 # H3
107 10 4 -0.0205 -1.163428 -18.145820 14.528404 # N2
108 10 7 0.2823 0.770785 -20.699047 16.125925 # C4
109 10 8 0.2524 -1.345910 -16.955256 13.682213 # C5
110 10 9 0.0319 -0.090463 -16.618009 12.882966 # C6
111 11 1 -0.0124 -4.897910 1.137227 14.992437 # C1
112 11 2 -0.2067 -4.190446 3.193727 15.175409 # C2
113 11 3 -0.1705 -5.348292 3.218827 14.495400 # C3
114 11 4 -0.0352 -5.783072 1.915685 14.387362 # N1
115 11 5 0.2276 -4.957669 0.072250 15.077009 # H1
116 11 6 0.2555 -3.536265 3.987969 15.468884 # H2
117 11 6 0.2382 -5.897210 4.039148 14.082287 # H3
118 11 4 -0.0205 -3.926575 1.875441 15.477694 # N2
119 11 7 0.2823 -7.016310 1.474521 13.715587 # C4
120 11 8 0.2524 -2.738796 1.388864 16.198254 # C5
121 11 9 0.0319 -2.556474 -0.119603 16.056962 # C6
122 12 1 -0.0124 -12.900703 9.432694 20.691888 # C1
123 12 2 -0.2067 -12.311292 11.534066 20.694493 # C2
124 12 3 -0.1705 -13.653430 11.486061 20.697501 # C3
125 12 4 -0.0352 -14.011285 10.155339 20.695816 # N1
126 12 5 0.2276 -12.851265 8.363839 20.689757 # H1
127 12 6 0.2555 -11.642986 12.369690 20.694526 # H2
128 12 6 0.2382 -14.379720 12.271805 20.700660 # H3
129 12 4 -0.0205 -11.859292 10.232310 20.690992 # N2
130 12 7 0.2823 -15.388725 9.636264 20.698016 # C4
131 12 8 0.2524 -10.445831 9.822327 20.662256 # C5
132 12 9 0.0319 -10.280039 8.349096 20.300621 # C6
133 13 1 -0.0124 1.941565 -12.583438 7.577836 # C1
134 13 2 -0.2067 3.749490 -11.439756 8.009778 # C2
135 13 3 -0.1705 2.694331 -10.661086 8.299537 # C3
136 13 4 -0.0352 1.561187 -11.394664 8.022532 # N1
137 13 5 0.2276 1.288461 -13.376706 7.279373 # H1
138 13 6 0.2555 4.799532 -11.247797 8.083690 # H2
139 13 6 0.2382 2.647973 -9.660022 8.674534 # H3
140 13 4 -0.0205 3.253036 -12.643189 7.557930 # N2
141 13 7 0.2823 0.174626 -10.931026 8.193625 # C4
142 13 8 0.2524 4.066667 -13.783535 7.105823 # C5
143 13 9 0.0319 3.241820 -14.811277 6.336374 # C6
144 14 1 -0.0124 9.017499 -1.611148 7.664938 # C1
145 14 2 -0.2067 7.226982 -2.822838 7.963319 # C2
146 14 3 -0.1705 7.973855 -2.916493 9.075550 # C3
147 14 4 -0.0352 9.099542 -2.147768 8.873629 # N1
148 14 5 0.2276 9.742676 -0.962933 7.219028 # H1
149 14 6 0.2555 6.284413 -3.265048 7.716510 # H2
150 14 6 0.2382 7.807350 -3.456019 9.984444 # H3
151 14 4 -0.0205 7.902001 -1.997601 7.090269 # N2
152 14 7 0.2823 10.196352 -1.960953 9.837419 # C4
153 14 8 0.2524 7.450893 -1.641172 5.735189 # C5
154 14 9 0.0319 8.568014 -1.022616 4.899662 # C6
155 15 1 -0.0124 -17.740147 -15.816864 -1.130703 # C1
156 15 2 -0.2067 -17.513732 -13.803810 -0.318590 # C2
157 15 3 -0.1705 -17.432027 -14.669114 0.705237 # C3
158 15 4 -0.0352 -17.576414 -15.934412 0.178876 # N1
159 15 5 0.2276 -17.878147 -16.625441 -1.817769 # H1
160 15 6 0.2555 -17.452069 -12.735732 -0.336072 # H2
161 15 6 0.2382 -17.285466 -14.500158 1.751600 # H3
162 15 4 -0.0205 -17.707420 -14.546979 -1.462736 # N2
163 15 7 0.2823 -17.551796 -17.191279 0.944686 # C4
164 15 8 0.2524 -17.875993 -13.995758 -2.817182 # C5
165 15 9 0.0319 -18.427563 -15.028803 -3.795581 # C6
166 16 1 -0.0124 -13.639089 -8.782202 -19.027985 # C1
167 16 2 -0.2067 -11.477186 -8.485378 -19.063255 # C2
168 16 3 -0.1705 -11.742474 -9.451881 -18.169308 # C3
169 16 4 -0.0352 -13.109027 -9.628727 -18.157323 # N1
170 16 5 0.2276 -14.681984 -8.680919 -19.244806 # H1
171 16 6 0.2555 -10.546981 -8.053914 -19.368965 # H2
172 16 6 0.2382 -11.087927 -10.024697 -17.546131 # H3
173 16 4 -0.0205 -12.683661 -8.079029 -19.590684 # N2
174 16 7 0.2823 -13.843221 -10.591830 -17.320558 # C4
175 16 8 0.2524 -12.859173 -7.015852 -20.593498 # C5
176 16 9 0.0319 -14.310976 -6.558149 -20.700503 # C6
177 17 1 -0.0124 -12.142996 15.924168 19.750361 # C1
178 17 2 -0.2067 -13.022423 14.043296 19.077974 # C2
179 17 3 -0.1705 -14.003629 14.782109 19.621150 # C3
180 17 4 -0.0352 -13.435116 15.965133 20.040832 # N1
181 17 5 0.2276 -11.432491 16.697965 19.953633 # H1
182 17 6 0.2555 -13.045128 13.068104 18.638219 # H2
183 17 6 0.2382 -15.045888 14.574606 19.745801 # H3
184 17 4 -0.0205 -11.861845 14.780515 19.169899 # N2
185 17 7 0.2823 -14.146208 17.074875 20.696274 # C4
186 17 8 0.2524 -10.533698 14.336947 18.715965 # C5
187 17 9 0.0319 -9.412360 15.206388 19.277524 # C6
188 18 1 -0.0124 18.461968 -9.465546 1.111457 # C1
189 18 2 -0.2067 18.473295 -8.261548 2.931741 # C2
190 18 3 -0.1705 17.423751 -9.096630 3.000625 # C3
191 18 4 -0.0352 17.428738 -9.849720 1.846625 # N1
192 18 5 0.2276 18.732008 -9.865686 0.156540 # H1
193 18 6 0.2555 18.820478 -7.519028 3.619512 # H2
194 18 6 0.2382 16.680370 -9.221832 3.759972 # H3
195 18 4 -0.0205 19.111583 -8.510743 1.736177 # N2
196 18 7 0.2823 16.453123 -10.895853 1.499401 # C4
197 18 8 0.2524 20.302305 -7.799716 1.242816 # C5
198 18 9 0.0319 20.546615 -8.046271 -0.243185 # C6
199 19 1 -0.0124 -13.255011 15.045959 -14.622957 # C1
200 19 2 -0.2067 -15.149385 15.944057 -15.229539 # C2
201 19 3 -0.1705 -14.465075 15.641145 -16.344713 # C3
202 19 4 -0.0352 -13.272866 15.075685 -15.947503 # N1
203 19 5 0.2276 -12.459938 14.663372 -14.017658 # H1
204 19 6 0.2555 -16.112046 16.393417 -15.102028 # H2
205 19 6 0.2382 -14.716680 15.775754 -17.375962 # H3
206 19 4 -0.0205 -14.370093 15.561376 -14.159425 # N2
207 19 7 0.2823 -12.210605 14.592025 -16.844419 # C4
208 19 8 0.2524 -14.727423 15.733367 -12.741851 # C5
209 19 9 0.0319 -13.526371 15.551243 -11.818281 # C6
210 20 1 -0.0124 6.292395 8.904875 -12.079940 # C1
211 20 2 -0.2067 5.724688 7.106549 -10.981347 # C2
212 20 3 -0.1705 7.043106 7.036112 -11.227236 # C3
213 20 4 -0.0352 7.387486 8.176218 -11.920377 # N1
214 20 5 0.2276 6.238022 9.848900 -12.580700 # H1
215 20 6 0.2555 5.072598 6.427853 -10.472377 # H2
216 20 6 0.2382 7.760964 6.284225 -10.973767 # H3
217 20 4 -0.0205 5.273526 8.289158 -11.526115 # N2
218 20 7 0.2823 8.738032 8.517044 -12.396450 # C4
219 20 8 0.2524 3.877894 8.756771 -11.507803 # C5
220 20 9 0.0319 3.639483 9.898767 -12.491510 # C6
221 21 1 -0.0124 -19.989197 -11.608208 -12.250966 # C1
222 21 2 -0.2067 -20.030899 -10.102189 -13.829998 # C2
223 21 3 -0.1705 -20.395880 -9.503554 -12.684540 # C3
224 21 4 -0.0352 -20.365231 -10.464597 -11.697453 # N1
225 21 5 0.2276 -19.871801 -12.540633 -11.739396 # H1
226 21 6 0.2555 -19.927974 -9.710051 -14.820217 # H2
227 21 6 0.2382 -20.672201 -8.489383 -12.484531 # H3
228 21 4 -0.0205 -19.780018 -11.424453 -13.534088 # N2
229 21 7 0.2823 -20.694196 -10.249703 -10.278866 # C4
230 21 8 0.2524 -19.374529 -12.452094 -14.506875 # C5
231 21 9 0.0319 -19.528375 -13.864899 -13.951008 # C6
232 22 1 -0.0124 5.950462 -13.337931 -14.922210 # C1
233 22 2 -0.2067 7.182975 -11.645067 -14.307151 # C2
234 22 3 -0.1705 7.975707 -12.727514 -14.366584 # C3
235 22 4 -0.0352 7.185688 -13.787447 -14.755553 # N1
236 22 5 0.2276 5.107779 -13.924646 -15.223128 # H1
237 22 6 0.2555 7.405004 -10.631009 -14.047747 # H2
238 22 6 0.2382 9.021451 -12.838211 -14.168937 # H3
239 22 4 -0.0205 5.914617 -12.051844 -14.660257 # N2
240 22 7 0.2823 7.642302 -15.173323 -14.949558 # C4
241 22 8 0.2524 4.724761 -11.186350 -14.704387 # C5
242 22 9 0.0319 3.429353 -11.990073 -14.772393 # C6
243 23 1 -0.0124 18.095138 -6.744845 20.519515 # C1
244 23 2 -0.2067 18.761029 -8.823203 20.533281 # C2
245 23 3 -0.1705 17.421091 -8.822754 20.623928 # C3
246 23 4 -0.0352 17.014759 -7.506060 20.614157 # N1
247 23 5 0.2276 18.104636 -5.675333 20.488604 # H1
248 23 6 0.2555 19.458457 -9.634318 20.509049 # H2
249 23 6 0.2382 16.726212 -9.633400 20.693886 # H3
250 23 4 -0.0205 19.163223 -7.506781 20.468813 # N2
251 23 7 0.2823 15.622088 -7.036271 20.695089 # C4
252 23 8 0.2524 20.558942 -7.046441 20.386116 # C5
253 23 9 0.0319 20.694384 -5.558027 20.694262 # C6
254 24 1 -0.0124 7.141758 8.164323 10.282897 # C1
255 24 2 -0.2067 5.678930 9.334805 11.402397 # C2
256 24 3 -0.1705 6.620546 8.922792 12.266835 # C3
257 24 4 -0.0352 7.536377 8.186034 11.547583 # N1
258 24 5 0.2276 7.647103 7.670230 9.479530 # H1
259 24 6 0.2555 4.800624 9.926079 11.556910 # H2
260 24 6 0.2382 6.720659 9.085950 13.319573 # H3
261 24 4 -0.0205 6.026583 8.846658 10.161537 # N2
262 24 7 0.2823 8.739734 7.539708 12.096199 # C4
263 24 8 0.2524 5.254180 9.040980 8.923629 # C5
264 24 9 0.0319 5.694612 8.090501 7.813996 # C6
265 25 1 -0.0124 2.181317 -18.770414 4.604551 # C1
266 25 2 -0.2067 0.454697 -17.462137 4.339283 # C2
267 25 3 -0.1705 0.035175 -18.568900 4.973890 # C3
268 25 4 -0.0352 1.133899 -19.384905 5.134590 # N1
269 25 5 0.2276 3.180195 -19.152810 4.574266 # H1
270 25 6 0.2555 -0.082015 -16.590202 4.028525 # H2
271 25 6 0.2382 -0.937455 -18.846986 5.322542 # H3
272 25 4 -0.0205 1.806563 -17.610313 4.117057 # N2
273 25 7 0.2823 1.134886 -20.706470 5.782857 # C4
274 25 8 0.2524 2.666723 -16.637414 3.423967 # C5
275 25 9 0.0319 4.009241 -17.239899 3.019819 # C6
276 26 1 -0.0124 -5.523994 -20.009421 -11.735102 # C1
277 26 2 -0.2067 -6.038613 -18.631032 -13.347054 # C2
278 26 3 -0.1705 -4.699080 -18.703263 -13.283138 # C3
279 26 4 -0.0352 -4.388578 -19.575674 -12.262662 # N1
280 26 5 0.2276 -5.611238 -20.699825 -10.922310 # H1
281 26 6 0.2555 -6.676883 -18.069601 -13.996904 # H2
282 26 6 0.2382 -3.945464 -18.216886 -13.866575 # H3
283 26 4 -0.0205 -6.536393 -19.459859 -12.365145 # N2
284 26 7 0.2823 -3.030445 -19.953933 -11.839366 # C4
285 26 8 0.2524 -7.963221 -19.663136 -12.065774 # C5
286 26 9 0.0319 -8.178271 -20.339152 -10.714688 # C6
287 27 1 -0.0124 13.084716 -6.365096 -8.211282 # C1
288 27 2 -0.2067 14.057879 -8.259992 -7.736416 # C2
289 27 3 -0.1705 12.797856 -8.320935 -7.275680 # C3
290 27 4 -0.0352 12.195932 -7.119759 -7.581859 # N1
291 27 5 0.2276 12.915070 -5.373867 -8.576775 # H1
292 27 6 0.2555 14.849105 -8.979470 -7.701594 # H2
293 27 6 0.2382 12.279813 -9.103738 -6.762113 # H3
294 27 4 -0.0205 14.216260 -7.022043 -8.320608 # N2
295 27 7 0.2823 10.807958 -6.748322 -7.261942 # C4
296 27 8 0.2524 15.457813 -6.523132 -8.934138 # C5
297 27 9 0.0319 15.423968 -5.014158 -9.158921 # C6
298 28 1 -0.0124 -18.921646 -5.112130 -2.283268 # C1
299 28 2 -0.2067 -19.962229 -6.997967 -1.931161 # C2
300 28 3 -0.1705 -19.038422 -6.854716 -0.966946 # C3
301 28 4 -0.0352 -18.389889 -5.661645 -1.201190 # N1
302 28 5 0.2276 -18.628930 -4.179235 -2.717923 # H1
303 28 6 0.2555 -20.669959 -7.780597 -2.108665 # H2
304 28 6 0.2382 -18.786240 -7.488495 -0.142551 # H3
305 28 4 -0.0205 -19.871127 -5.891335 -2.747218 # N2
306 28 7 0.2823 -17.298403 -5.102940 -0.386763 # C4
307 28 8 0.2524 -20.686965 -5.650353 -3.948517 # C5
308 28 9 0.0319 -20.110076 -4.541933 -4.824462 # C6
309 29 1 -0.0124 -6.400002 0.440181 0.723591 # C1
310 29 2 -0.2067 -5.793931 0.254464 2.811979 # C2
311 29 3 -0.1705 -5.104380 1.274430 2.275473 # C3
312 29 4 -0.0352 -5.496334 1.380267 0.958638 # N1
313 29 5 0.2276 -6.893164 0.267665 -0.210180 # H1
314 29 6 0.2555 -5.782641 -0.151105 3.802073 # H2
315 29 6 0.2382 -4.376587 1.928691 2.708093 # H3
316 29 4 -0.0205 -6.601965 -0.255153 1.818874 # N2
317 29 7 0.2823 -4.993907 2.367844 -0.010405 # C4
318 29 8 0.2524 -7.511461 -1.403034 1.967096 # C5
319 29 9 0.0319 -7.982941 -1.942821 0.619872 # C6
320 30 1 -0.0124 14.749372 -4.687008 10.437478 # C1
321 30 2 -0.2067 13.249219 -6.061647 9.648121 # C2
322 30 3 -0.1705 12.616801 -4.937527 10.022355 # C3
323 30 4 -0.0352 13.574519 -4.079681 10.518098 # N1
324 30 5 0.2276 15.687657 -4.275021 10.745355 # H1
325 30 6 0.2555 12.870402 -6.965144 9.217899 # H2
326 30 6 0.2382 11.580848 -4.672969 9.980993 # H3
327 30 4 -0.0205 14.588542 -5.882103 9.918049 # N2
328 30 7 0.2823 13.326979 -2.727038 11.043325 # C4
329 30 8 0.2524 15.644929 -6.880337 9.684902 # C5
330 30 9 0.0319 16.940308 -6.529361 10.411184 # C6
331 31 1 -0.0124 -12.932417 -1.739427 -14.642559 # C1
332 31 2 -0.2067 -12.319038 -1.180115 -16.661002 # C2
333 31 3 -0.1705 -11.461474 -0.608283 -15.800049 # C3
334 31 4 -0.0352 -11.860004 -0.969249 -14.531286 # N1
335 31 5 0.2276 -13.473502 -2.177583 -13.830065 # H1
336 31 6 0.2555 -12.359766 -1.148625 -17.729763 # H2
337 31 6 0.2382 -10.611119 0.017390 -15.974207 # H3
338 31 4 -0.0205 -13.235029 -1.886129 -15.911743 # N2
339 31 7 0.2823 -11.203460 -0.565403 -13.277236 # C4
340 31 8 0.2524 -14.371861 -2.647825 -16.454161 # C5
341 31 9 0.0319 -15.392588 -3.005303 -15.377592 # C6
342 32 1 -0.0124 -16.819620 20.124294 1.726911 # C1
343 32 2 -0.2067 -15.013537 18.911868 1.903723 # C2
344 32 3 -0.1705 -15.496911 19.107953 3.141280 # C3
345 32 4 -0.0352 -16.635515 19.873787 3.014924 # N1
346 32 5 0.2276 -17.622069 20.696729 1.310625 # H1
347 32 6 0.2555 -14.150948 18.374746 1.568549 # H2
348 32 6 0.2382 -15.136590 18.774581 4.092033 # H3
349 32 4 -0.0205 -15.860468 19.559383 1.030616 # N2
350 32 7 0.2823 -17.491544 20.329393 4.122362 # C4
351 32 8 0.2524 -15.690683 19.622770 -0.430185 # C5
352 32 9 0.0319 -16.567376 20.697599 -1.066447 # C6
353 33 1 -0.0124 0.220506 17.199202 20.005282 # C1
354 33 2 -0.2067 -1.154856 16.183575 18.648795 # C2
355 33 3 -0.1705 -1.598250 17.440336 18.814934 # C3
356 33 4 -0.0352 -0.721781 18.069200 19.672382 # N1
357 33 5 0.2276 1.044883 17.391558 20.659730 # H1
358 33 6 0.2555 -1.546711 15.376844 18.065241 # H2
359 33 6 0.2382 -2.450829 17.939487 18.404013 # H3
360 33 4 -0.0205 -0.010840 16.054101 19.405993 # N2
361 33 7 0.2823 -0.822254 19.463740 20.132759 # C4
362 33 8 0.2524 0.790172 14.825827 19.534472 # C5
363 33 9 0.0319 1.764922 14.893120 20.706654 # C6
364 34 1 -0.0124 15.239950 -12.402719 -14.625730 # C1
365 34 2 -0.2067 17.029615 -13.616445 -14.330525 # C2
366 34 3 -0.1705 15.962350 -14.412238 -14.153589 # C3
367 34 4 -0.0352 14.840915 -13.634087 -14.342660 # N1
368 34 5 0.2276 14.599426 -11.568901 -14.824165 # H1
369 34 6 0.2555 18.076485 -13.830143 -14.273122 # H2
370 34 6 0.2382 15.900242 -15.452834 -13.912333 # H3
371 34 4 -0.0205 16.552175 -12.358106 -14.626361 # N2
372 34 7 0.2823 13.447254 -14.097782 -14.245286 # C4
373 34 8 0.2524 17.383553 -11.168298 -14.871213 # C5
374 34 9 0.0319 16.573756 -9.876373 -14.809291 # C6
375 35 1 -0.0124 12.805829 6.829711 10.278751 # C1
376 35 2 -0.2067 10.810163 5.960070 10.123133 # C2
377 35 3 -0.1705 11.662861 4.972167 10.440312 # C3
378 35 4 -0.0352 12.917290 5.534558 10.535224 # N1
379 35 5 0.2276 13.608770 7.536941 10.275470 # H1
380 35 6 0.2555 9.752985 5.943371 9.958827 # H2
381 35 6 0.2382 11.491710 3.928954 10.605581 # H3
382 35 4 -0.0205 11.550068 7.118568 10.026658 # N2
383 35 7 0.2823 14.158544 4.815047 10.864433 # C4
384 35 8 0.2524 11.014762 8.443184 9.672224 # C5
385 35 9 0.0319 12.117335 9.428864 9.296133 # C6
386 36 1 -0.0124 12.701606 -1.713015 -12.903752 # C1
387 36 2 -0.2067 12.076078 -0.268003 -11.392517 # C2
388 36 3 -0.1705 11.564294 -1.462246 -11.052648 # C3
389 36 4 -0.0352 11.966515 -2.363862 -12.013997 # N1
390 36 5 0.2276 13.158055 -2.142788 -13.770844 # H1
391 36 6 0.2555 11.999139 0.685854 -10.913835 # H2
392 36 6 0.2382 10.955569 -1.749308 -10.220813 # H3
393 36 4 -0.0205 12.787112 -0.449005 -12.558945 # N2
394 36 7 0.2823 11.633295 -3.797411 -12.040189 # C4
395 36 8 0.2524 13.494060 0.609897 -13.297682 # C5
396 36 9 0.0319 13.867696 0.175304 -14.711967 # C6
397 37 1 -0.0124 -10.345157 20.079753 -12.738225 # C1
398 37 2 -0.2067 -11.424897 18.776969 -14.116662 # C2
399 37 3 -0.1705 -12.296343 19.199306 -13.186145 # C3
400 37 4 -0.0352 -11.602199 20.019762 -12.323649 # N1
401 37 5 0.2276 -9.560410 20.639222 -12.273395 # H1
402 37 6 0.2555 -11.561608 18.130699 -14.958414 # H2
403 37 6 0.2382 -13.338560 18.991880 -13.061010 # H3
404 37 4 -0.0205 -10.204916 19.342584 -13.815646 # N2
405 37 7 0.2823 -12.166292 20.705539 -11.149642 # C4
406 37 8 0.2524 -8.957757 19.125650 -14.566857 # C5
407 37 9 0.0319 -7.728328 19.584826 -13.788180 # C6
408 38 1 -0.0124 -7.797704 14.381092 -8.070212 # C1
409 38 2 -0.2067 -6.062370 13.059117 -8.005621 # C2
410 38 3 -0.1705 -5.612939 14.316954 -8.145288 # C3
411 38 4 -0.0352 -6.717530 15.139886 -8.184589 # N1
412 38 5 0.2276 -8.808927 14.730828 -8.066743 # H1
413 38 6 0.2555 -5.532026 12.132499 -7.934805 # H2
414 38 6 0.2382 -4.615599 14.697336 -8.219597 # H3
415 38 4 -0.0205 -7.438150 13.123062 -7.960647 # N2
416 38 7 0.2823 -6.692756 16.604609 -8.328664 # C4
417 38 8 0.2524 -8.340310 11.966318 -7.838839 # C5
418 38 9 0.0319 -9.784257 12.322784 -8.180341 # C6
419 39 1 -0.0124 -17.689485 1.638466 1.712255 # C1
420 39 2 -0.2067 -18.214970 0.767999 3.643402 # C2
421 39 3 -0.1705 -17.227560 0.026153 3.115828 # C3
422 39 4 -0.0352 -16.906093 0.586215 1.898506 # N1
423 39 5 0.2276 -17.678582 2.281446 0.857060 # H1
424 39 6 0.2555 -18.742483 0.670620 4.569224 # H2
425 39 6 0.2382 -16.729070 -0.842067 3.493456 # H3
426 39 4 -0.0205 -18.489313 1.775696 2.744421 # N2
427 39 7 0.2823 -15.871967 0.095016 0.973254 # C4
428 39 8 0.2524 -19.525636 2.807438 2.912731 # C5
429 39 9 0.0319 -19.825768 3.541296 1.608873 # C6
430 40 1 -0.0124 5.977901 7.573506 -6.577662 # C1
431 40 2 -0.2067 4.578133 7.351286 -4.918011 # C2
432 40 3 -0.1705 5.571333 6.465739 -4.736331 # C3
433 40 4 -0.0352 6.446617 6.616784 -5.789872 # N1
434 40 5 0.2276 6.437233 7.920636 -7.479557 # H1
435 40 6 0.2555 3.707586 7.553781 -4.329755 # H2
436 40 6 0.2382 5.732806 5.748076 -3.959294 # H3
437 40 4 -0.0205 4.854112 8.036676 -6.081179 # N2
438 40 7 0.2823 7.683557 5.845957 -5.996243 # C4
439 40 8 0.2524 4.008791 9.087792 -6.670561 # C5
440 40 9 0.0319 4.387458 9.388177 -8.117992 # C6
441 41 1 -0.0124 -16.978405 19.787706 7.290454 # C1
442 41 2 -0.2067 -16.139891 18.114379 8.412971 # C2
443 41 3 -0.1705 -17.429617 18.238219 8.766409 # C3
444 41 4 -0.0352 -17.945893 19.296884 8.051167 # N1
445 41 5 0.2276 -17.070945 20.616335 6.619849 # H1
446 41 6 0.2555 -15.391503 17.421009 8.735547 # H2
447 41 6 0.2382 -18.021365 17.673529 9.456235 # H3
448 41 4 -0.0205 -15.877937 19.098318 7.484463 # N2
449 41 7 0.2823 -19.330998 19.789598 8.125340 # C4
450 41 8 0.2524 -14.573406 19.341764 6.847505 # C5
451 41 9 0.0319 -14.513093 20.701990 6.158431 # C6
452 42 1 -0.0124 8.720498 -12.589290 3.373892 # C1
453 42 2 -0.2067 10.118157 -13.163786 1.799192 # C2
454 42 3 -0.1705 9.444982 -12.082416 1.373605 # C3
455 42 4 -0.0352 8.567327 -11.730989 2.376154 # N1
456 42 5 0.2276 8.178135 -12.577861 4.296178 # H1
457 42 6 0.2555 10.883366 -13.741108 1.323740 # H2
458 42 6 0.2382 9.510704 -11.536105 0.455932 # H3
459 42 4 -0.0205 9.646700 -13.464863 3.058543 # N2
460 42 7 0.2823 7.627566 -10.598682 2.337208 # C4
461 42 8 0.2524 10.094455 -14.596331 3.886844 # C5
462 42 9 0.0319 9.144054 -14.872190 5.048444 # C6
463 43 1 -0.0124 15.622030 18.774549 10.577521 # C1
464 43 2 -0.2067 13.851416 18.317269 11.768738 # C2
465 43 3 -0.1705 13.708515 17.715584 10.576596 # C3
466 43 4 -0.0352 14.831905 18.012257 9.835741 # N1
467 43 5 0.2276 16.570839 19.168041 10.277812 # H1
468 43 6 0.2555 13.207198 18.335341 12.622879 # H2
469 43 6 0.2382 12.915812 17.108453 10.192000 # H3
470 43 4 -0.0205 15.061033 18.977003 11.747230 # N2
471 43 7 0.2823 15.099289 17.557691 8.461456 # C4
472 43 8 0.2524 15.606289 19.790614 12.846101 # C5
473 43 9 0.0319 16.766231 20.671441 12.390739 # C6
474 44 1 -0.0124 -18.879353 0.712284 19.522923 # C1
475 44 2 -0.2067 -17.093545 1.627611 18.664877 # C2
476 44 3 -0.1705 -16.707389 0.532927 19.340302 # C3
477 44 4 -0.0352 -17.843223 -0.034273 19.876071 # N1
478 44 5 0.2276 -19.899921 0.528945 19.786983 # H1
479 44 6 0.2555 -16.522843 2.342273 18.109488 # H2
480 44 6 0.2382 -15.735437 0.110120 19.486738 # H3
481 44 4 -0.0205 -18.462389 1.720951 18.793090 # N2
482 44 7 0.2823 -17.888511 -1.255895 20.696054 # C4
483 44 8 0.2524 -19.299177 2.791235 18.226466 # C5
484 44 9 0.0319 -20.696913 2.815381 18.838370 # C6
485 45 1 -0.0124 -0.704074 -11.313441 -12.833975 # C1
486 45 2 -0.2067 -1.133527 -12.987137 -11.500751 # C2
487 45 3 -0.1705 -1.191040 -11.859822 -10.773082 # C3
488 45 4 -0.0352 -0.918303 -10.812552 -11.626150 # N1
489 45 5 0.2276 -0.467939 -10.748384 -13.711386 # H1
490 45 6 0.2555 -1.282315 -14.008369 -11.218176 # H2
491 45 6 0.2382 -1.399589 -11.709678 -9.734398 # H3
492 45 4 -0.0205 -0.826086 -12.620097 -12.792898 # N2
493 45 7 0.2823 -0.874639 -9.389408 -11.252603 # C4
494 45 8 0.2524 -0.640769 -13.548498 -13.920068 # C5
495 45 9 0.0319 0.039170 -12.880280 -15.111640 # C6
496 46 1 -0.0124 16.724331 0.242834 2.297880 # C1
497 46 2 -0.2067 17.266830 0.941177 4.293171 # C2
498 46 3 -0.1705 18.138964 1.474674 3.422303 # C3
499 46 4 -0.0352 17.785169 1.026071 2.168322 # N1
500 46 5 0.2276 16.215895 -0.256798 1.499908 # H1
501 46 6 0.2555 17.193687 1.039437 5.356137 # H2
502 46 6 0.2382 18.972043 2.127283 3.580363 # H3
503 46 4 -0.0205 16.386783 0.170659 3.564678 # N2
504 46 7 0.2823 18.471230 1.362977 0.910308 # C4
505 46 8 0.2524 15.278151 -0.617275 4.127597 # C5
506 46 9 0.0319 14.726249 -1.631034 3.129412 # C6
507 47 1 -0.0124 -5.607473 0.365696 10.413415 # C1
508 47 2 -0.2067 -3.843384 -0.847053 10.838156 # C2
509 47 3 -0.1705 -3.472236 0.134939 10.000546 # C3
510 47 4 -0.0352 -4.594138 0.891870 9.741167 # N1
511 47 5 0.2276 -6.612919 0.731723 10.414986 # H1
512 47 6 0.2555 -3.276254 -1.640964 11.277437 # H2
513 47 6 0.2382 -2.519453 0.361400 9.569480 # H3
514 47 4 -0.0205 -5.189238 -0.682663 11.084197 # N2
515 47 7 0.2823 -4.648435 2.076182 8.868676 # C4
516 47 8 0.2524 -6.012088 -1.558318 11.934450 # C5
517 47 9 0.0319 -7.505912 -1.334239 11.717758 # C6
518 48 1 -0.0124 -13.655679 -2.078092 2.424643 # C1
519 48 2 -0.2067 -12.036910 -3.418155 3.013705 # C2
520 48 3 -0.1705 -11.494810 -2.400221 2.325529 # C3
521 48 4 -0.0352 -12.526628 -1.563050 1.960316 # N1
522 48 5 0.2276 -14.631270 -1.655989 2.302368 # H1
523 48 6 0.2555 -11.582313 -4.273482 3.468302 # H2
524 48 6 0.2382 -10.476925 -2.197829 2.065051 # H3
525 48 4 -0.0205 -13.395835 -3.195211 3.063743 # N2
526 48 7 0.2823 -12.389612 -0.316662 1.189259 # C4
527 48 8 0.2524 -14.380733 -4.082241 3.704007 # C5
528 48 9 0.0319 -15.810355 -3.757358 3.280559 # C6
529 49 1 -0.0124 20.179890 -1.329188 -3.836691 # C1
530 49 2 -0.2067 20.467944 -2.556549 -2.055180 # C2
531 49 3 -0.1705 20.299754 -3.384555 -3.099099 # C3
532 49 4 -0.0352 20.119213 -2.597392 -4.215639 # N1