LAMMPS data file
# Generated by Playmol on 23-Aug-2017 at 21:34:34

2 atom types
1 bond types
1 angle types

600 atoms
400 bonds
200 angles

-9.1696715252801386 9.1696715252801386 xlo xhi
-9.1696715252801386 9.1696715252801386 ylo yhi
-9.1696715252801386 9.1696715252801386 zlo zhi

Masses

1 1.008 # HW
2 15.9994 # OW

Bond Coeffs

1 553.00 0.9572 # HW OW

Angle Coeffs

1 100.00 104.52 # HW OW HW

Atoms

1 1 1 0.417 -3.034748 -3.915524 7.459590 # H1
2 1 2 -0.834 -2.454261 -4.646996 7.669864 # O
3 1 1 0.417 -2.429711 -5.171607 6.869607 # H2
4 2 1 0.417 -6.851357 -7.669799 -1.792545 # H1
5 2 2 -0.834 -7.659725 -7.633817 -1.281195 # O
6 2 1 0.417 -7.669752 -6.751624 -0.909889 # H2
7 3 1 0.417 0.237768 1.285839 -7.524996 # H1
8 3 2 -0.834 -0.265839 0.594039 -7.096016 # O
9 3 1 0.417 -0.694980 1.030660 -6.360196 # H2
10 4 1 0.417 6.406003 -7.210717 -3.430762 # H1
11 4 2 -0.834 5.487855 -6.962993 -3.539710 # O
12 4 1 0.417 5.489378 -6.007204 -3.487777 # H2
13 5 1 0.417 6.924014 3.405158 -4.005021 # H1
14 5 2 -0.834 7.528919 3.002510 -4.628076 # O
15 5 1 0.417 6.975749 2.738767 -5.363382 # H2
16 6 1 0.417 3.927525 2.228369 -0.849029 # H1
17 6 2 -0.834 4.199812 2.066876 0.054305 # O
18 6 1 0.417 4.220865 1.113046 0.131736 # H2
19 7 1 0.417 7.670821 6.772965 -7.538453 # H1
20 7 2 -0.834 7.368543 7.671405 -7.671361 # O
21 7 1 0.417 6.418350 7.622924 -7.566406 # H2
22 8 1 0.417 -0.169145 7.675125 -2.109631 # H1
23 8 2 -0.834 -1.124485 7.621741 -2.136223 # O
24 8 1 0.417 -1.306924 6.727949 -2.426193 # H2
25 9 1 0.417 7.629599 -6.337985 -4.852153 # H1
26 9 2 -0.834 7.670493 -5.381671 -4.856997 # O
27 9 1 0.417 6.913224 -5.111711 -5.376512 # H2
28 10 1 0.417 -6.510904 7.671550 5.423620 # H1
29 10 2 -0.834 -7.447332 7.662226 5.225507 # O
30 10 1 0.417 -7.670498 6.733403 5.164549 # H2
31 11 1 0.417 -2.112197 4.263443 4.329461 # H1
32 11 2 -0.834 -1.175417 4.444563 4.406080 # O
33 11 1 0.417 -1.106495 5.041048 5.151525 # H2
34 12 1 0.417 3.106021 7.115479 -2.724882 # H1
35 12 2 -0.834 2.272743 7.578096 -2.636194 # O
36 12 1 0.417 1.627668 6.885412 -2.493719 # H2
37 13 1 0.417 7.150197 -4.828194 5.967475 # H1
38 13 2 -0.834 7.017271 -4.732258 6.910533 # O
39 13 1 0.417 6.259415 -5.284226 7.103449 # H2
40 14 1 0.417 -3.952951 5.047607 -3.069353 # H1
41 14 2 -0.834 -3.417411 5.390309 -2.353823 # O
42 14 1 0.417 -2.522639 5.137794 -2.581533 # H2
43 15 1 0.417 -6.756978 -7.670643 -5.517969 # H1
44 15 2 -0.834 -7.670108 -7.542427 -5.261093 # O
45 15 1 0.417 -7.669966 -7.654347 -4.310458 # H2
46 16 1 0.417 -6.298353 -6.549748 -3.362596 # H1
47 16 2 -0.834 -6.555446 -5.637413 -3.229251 # O
48 16 1 0.417 -5.733929 -5.147960 -3.271420 # H2
49 17 1 0.417 -0.936907 -5.154182 5.538783 # H1
50 17 2 -0.834 -0.028846 -4.851991 5.557168 # O
51 17 1 0.417 -0.094252 -3.898445 5.609163 # H2
52 18 1 0.417 2.364171 7.022512 -7.323203 # H1
53 18 2 -0.834 2.964811 7.675586 -7.682311 # O
54 18 1 0.417 3.828192 7.266832 -7.621274 # H2
55 19 1 0.417 -4.792094 -2.134876 0.127015 # H1
56 19 2 -0.834 -5.194874 -2.763314 0.726237 # O
57 19 1 0.417 -4.603304 -2.790955 1.478242 # H2
58 20 1 0.417 -2.378002 -7.668126 -6.655889 # H1
59 20 2 -0.834 -3.072132 -7.670820 -7.314985 # O
60 20 1 0.417 -3.773391 -7.147342 -6.927121 # H2
61 21 1 0.417 -7.036144 -2.002551 4.029242 # H1
62 21 2 -0.834 -6.344171 -2.365092 3.476098 # O
63 21 1 0.417 -6.808993 -2.761933 2.739422 # H2
64 22 1 0.417 -2.437836 -2.026000 -0.932870 # H1
65 22 2 -0.834 -2.419288 -2.908125 -0.561732 # O
66 22 1 0.417 -1.630984 -2.923613 -0.018990 # H2
67 23 1 0.417 7.285908 1.108026 5.330045 # H1
68 23 2 -0.834 7.669478 0.239544 5.208206 # O
69 23 1 0.417 7.038194 -0.226914 4.660366 # H2
70 24 1 0.417 2.892682 -1.794366 -6.344115 # H1
71 24 2 -0.834 3.202571 -2.656910 -6.068037 # O
72 24 1 0.417 3.147572 -2.637189 -5.112622 # H2
73 25 1 0.417 -4.665979 -5.139929 -5.655604 # H1
74 25 2 -0.834 -3.728492 -4.958074 -5.721012 # O
75 25 1 0.417 -3.661366 -4.007710 -5.628626 # H2
76 26 1 0.417 7.614272 -3.512314 -7.255761 # H1
77 26 2 -0.834 7.673079 -2.865353 -6.552756 # O
78 26 1 0.417 7.067627 -3.183116 -5.882916 # H2
79 27 1 0.417 2.339195 -3.145194 5.231029 # H1
80 27 2 -0.834 2.480964 -2.695845 4.397832 # O
81 27 1 0.417 2.993745 -3.313369 3.876342 # H2
82 28 1 0.417 -1.575278 -6.889262 6.301463 # H1
83 28 2 -0.834 -1.097413 -7.670366 6.022620 # O
84 28 1 0.417 -0.348728 -7.331276 5.531987 # H2
85 29 1 0.417 6.691024 -5.000869 0.188412 # H1
86 29 2 -0.834 5.749827 -5.119220 0.060450 # O
87 29 1 0.417 5.379174 -4.245277 0.183214 # H2
88 30 1 0.417 3.375286 4.372125 7.388827 # H1
89 30 2 -0.834 4.129000 4.888133 7.674979 # O
90 30 1 0.417 4.859114 4.556821 7.152105 # H2
91 31 1 0.417 0.900367 6.780930 -5.789687 # H1
92 31 2 -0.834 0.854061 7.670555 -5.439467 # O
93 31 1 0.417 0.454128 7.567989 -4.575889 # H2
94 32 1 0.417 -4.153361 -3.420711 -7.670095 # H1
95 32 2 -0.834 -5.056791 -3.104413 -7.670124 # O
96 32 1 0.417 -5.589494 -3.899686 -7.670208 # H2
97 33 1 0.417 -3.934592 -0.724653 5.076565 # H1
98 33 2 -0.834 -3.771342 -0.987567 4.170774 # O
99 33 1 0.417 -3.990933 -0.213151 3.652807 # H2
100 34 1 0.417 4.653539 7.670340 6.855524 # H1
101 34 2 -0.834 5.323671 7.658650 7.538911 # O
102 34 1 0.417 5.769214 6.819322 7.423796 # H2
103 35 1 0.417 2.338688 5.440338 0.841792 # H1
104 35 2 -0.834 2.387331 4.765353 0.164844 # O
105 35 1 0.417 3.072984 5.070368 -0.429359 # H2
106 36 1 0.417 -7.109890 7.669788 -6.946218 # H1
107 36 2 -0.834 -7.669800 7.388550 -7.669846 # O
108 36 1 0.417 -7.604388 6.433592 -7.666764 # H2
109 37 1 0.417 1.593389 -7.483245 7.477383 # H1
110 37 2 -0.834 1.431815 -6.559618 7.669836 # O
111 37 1 0.417 0.496691 -6.439965 7.504132 # H2
112 38 1 0.417 3.018255 -4.495094 -4.383692 # H1
113 38 2 -0.834 3.133054 -5.374954 -4.742718 # O
114 38 1 0.417 3.606257 -5.239319 -5.563640 # H2
115 39 1 0.417 -7.492518 -7.227196 5.185511 # H1
116 39 2 -0.834 -6.729004 -7.670485 4.815680 # O
117 39 1 0.417 -6.177177 -6.961937 4.484504 # H2
118 40 1 0.417 -6.658462 -4.283881 6.888660 # H1
119 40 2 -0.834 -5.904868 -4.772636 7.219489 # O
120 40 1 0.417 -6.010441 -5.651681 6.855668 # H2
121 41 1 0.417 -1.633114 2.313573 7.049986 # H1
122 41 2 -0.834 -2.255815 1.933750 7.669833 # O
123 41 1 0.417 -2.156092 0.987990 7.561082 # H2
124 42 1 0.417 -1.519326 -2.024569 -4.928250 # H1
125 42 2 -0.834 -2.112468 -2.512848 -4.357287 # O
126 42 1 0.417 -2.982249 -2.357097 -4.725329 # H2
127 43 1 0.417 3.888245 2.718134 -5.997077 # H1
128 43 2 -0.834 3.732886 3.342458 -5.288335 # O
129 43 1 0.417 4.384079 3.117922 -4.623682 # H2
130 44 1 0.417 -5.391841 2.652862 -1.430392 # H1
131 44 2 -0.834 -5.379966 3.123172 -2.263999 # O
132 44 1 0.417 -5.118550 2.464498 -2.907459 # H2
133 45 1 0.417 0.251355 -7.001007 -4.602628 # H1
134 45 2 -0.834 -0.681708 -7.117678 -4.781552 # O
135 45 1 0.417 -1.096157 -6.337632 -4.412780 # H2
136 46 1 0.417 4.290419 -1.548348 -2.600645 # H1
137 46 2 -0.834 4.947734 -0.855029 -2.541676 # O
138 46 1 0.417 4.505626 -0.075873 -2.878854 # H2
139 47 1 0.417 -0.824099 0.382627 0.835638 # H1
140 47 2 -0.834 -0.227516 0.953785 0.351800 # O
141 47 1 0.417 -0.800856 1.577889 -0.093181 # H2
142 48 1 0.417 -7.670121 -1.502312 6.917606 # H1
143 48 2 -0.834 -7.542230 -2.079802 7.670189 # O
144 48 1 0.417 -6.647112 -2.404932 7.573827 # H2
145 49 1 0.417 2.069102 -7.602678 -4.025192 # H1
146 49 2 -0.834 2.160428 -7.671006 -3.074812 # O
147 49 1 0.417 3.072489 -7.436160 -2.903862 # H2
148 50 1 0.417 -4.624270 5.699589 5.744336 # H1
149 50 2 -0.834 -5.184051 5.601013 4.974167 # O
150 50 1 0.417 -4.596894 5.278606 4.290404 # H2
151 51 1 0.417 1.906589 1.954758 4.574966 # H1
152 51 2 -0.834 1.002912 2.212846 4.756598 # O
153 51 1 0.417 0.896832 3.049766 4.304334 # H2
154 52 1 0.417 5.614067 -3.928710 3.556797 # H1
155 52 2 -0.834 5.261273 -3.417102 2.828769 # O
156 52 1 0.417 5.813109 -3.650026 2.082141 # H2
157 53 1 0.417 -5.099018 -6.125579 0.370734 # H1
158 53 2 -0.834 -4.963461 -5.543445 -0.376913 # O
159 53 1 0.417 -5.257691 -6.051377 -1.132999 # H2
160 54 1 0.417 7.285133 7.153853 2.129977 # H1
161 54 2 -0.834 7.676344 6.445842 2.641745 # O
162 54 1 0.417 7.002710 6.210292 3.279683 # H2
163 55 1 0.417 -2.165398 5.388182 2.313394 # H1
164 55 2 -0.834 -3.101069 5.202509 2.234162 # O
165 55 1 0.417 -3.150437 4.250373 2.149128 # H2
166 56 1 0.417 2.280782 3.696595 -3.082096 # H1
167 56 2 -0.834 2.539739 4.581678 -2.825577 # O
168 56 1 0.417 1.824037 4.889437 -2.269441 # H2
169 57 1 0.417 5.570470 6.903035 -2.692630 # H1
170 57 2 -0.834 5.485072 7.679973 -3.245174 # O
171 57 1 0.417 5.780338 7.393447 -4.109438 # H2
172 58 1 0.417 -4.726149 -4.216092 3.023044 # H1
173 58 2 -0.834 -4.917541 -5.066749 2.628097 # O
174 58 1 0.417 -5.438910 -5.525377 3.286934 # H2
175 59 1 0.417 7.670647 6.516786 -2.794982 # H1
176 59 2 -0.834 7.681462 5.638049 -3.174371 # O
177 59 1 0.417 6.765319 5.455496 -3.383148 # H2
178 60 1 0.417 4.511612 -6.858106 -1.240639 # H1
179 60 2 -0.834 4.360090 -7.669699 -0.756296 # O
180 60 1 0.417 3.419312 -7.671748 -0.579760 # H2
181 61 1 0.417 -1.971456 7.029997 -7.357595 # H1
182 61 2 -0.834 -1.152853 7.419131 -7.665319 # O
183 61 1 0.417 -0.475106 6.802291 -7.388914 # H2
184 62 1 0.417 -7.303436 -5.481239 0.590603 # H1
185 62 2 -0.834 -7.671679 -4.990822 1.325531 # O
186 62 1 0.417 -7.112856 -4.217456 1.402038 # H2
187 63 1 0.417 -5.394786 4.331177 0.012165 # H1
188 63 2 -0.834 -5.354833 5.284356 -0.065843 # O
189 63 1 0.417 -6.269764 5.565125 -0.048491 # H2
190 64 1 0.417 2.942085 0.213915 6.608910 # H1
191 64 2 -0.834 2.400578 -0.569478 6.512493 # O
192 64 1 0.417 2.096483 -0.540859 5.605333 # H2
193 65 1 0.417 6.914969 3.896655 2.646777 # H1
194 65 2 -0.834 7.671532 3.472977 2.241386 # O
195 65 1 0.417 7.642327 2.571627 2.562240 # H2
196 66 1 0.417 -1.991036 2.272529 3.475045 # H1
197 66 2 -0.834 -2.011406 1.774784 2.657691 # O
198 66 1 0.417 -2.603947 2.268471 2.090769 # H2
199 67 1 0.417 4.779420 -6.831064 -5.933982 # H1
200 67 2 -0.834 4.853903 -7.673082 -6.383079 # O
201 67 1 0.417 4.861384 -7.448919 -7.313631 # H2
202 68 1 0.417 2.951486 -5.547082 -1.679299 # H1
203 68 2 -0.834 3.383493 -4.706131 -1.828977 # O
204 68 1 0.417 2.670835 -4.067110 -1.830336 # H2
205 69 1 0.417 7.669626 -6.709754 -0.778112 # H1
206 69 2 -0.834 7.669630 -7.515206 -1.295297 # O
207 69 1 0.417 6.747191 -7.669607 -1.499009 # H2
208 70 1 0.417 -4.067232 -0.613512 1.323594 # H1
209 70 2 -0.834 -3.153161 -0.496507 1.064718 # O
210 70 1 0.417 -3.161004 0.275187 0.498451 # H2
211 71 1 0.417 3.562323 -3.659142 6.886655 # H1
212 71 2 -0.834 3.870392 -4.438677 7.348877 # O
213 71 1 0.417 3.377155 -5.159974 6.958134 # H2
214 72 1 0.417 -0.124842 -1.161255 1.904447 # H1
215 72 2 -0.834 -0.749159 -1.665032 2.426623 # O
216 72 1 0.417 -1.327476 -2.072599 1.781898 # H2
217 73 1 0.417 -0.413411 0.207532 5.228269 # H1
218 73 2 -0.834 -1.347723 0.414708 5.247496 # O
219 73 1 0.417 -1.382496 1.370426 5.207173 # H2
220 74 1 0.417 2.088326 2.852147 7.205954 # H1
221 74 2 -0.834 1.704981 2.108759 7.671412 # O
222 74 1 0.417 0.819707 2.033279 7.315287 # H2
223 75 1 0.417 -1.316233 -4.758742 0.883885 # H1
224 75 2 -0.834 -2.004619 -5.079185 1.466700 # O
225 75 1 0.417 -2.752086 -5.238511 0.890384 # H2
226 76 1 0.417 -5.474357 6.806630 -2.466592 # H1
227 76 2 -0.834 -5.340418 7.678126 -2.094051 # O
228 76 1 0.417 -5.349249 7.538300 -1.147160 # H2
229 77 1 0.417 0.620632 -6.004861 -2.024559 # H1
230 77 2 -0.834 0.139442 -5.192449 -1.867480 # O
231 77 1 0.417 0.742684 -4.500139 -2.137738 # H2
232 78 1 0.417 7.008145 0.862374 1.740180 # H1
233 78 2 -0.834 7.670163 0.178217 1.839645 # O
234 78 1 0.417 7.278356 -0.448204 2.448182 # H2
235 79 1 0.417 0.713270 -1.636389 -0.542552 # H1
236 79 2 -0.834 0.415600 -2.176947 -1.274277 # O
237 79 1 0.417 -0.414166 -1.782140 -1.542322 # H2
238 80 1 0.417 6.843766 7.512355 -0.193273 # H1
239 80 2 -0.834 7.316244 6.690601 -0.326378 # O
240 80 1 0.417 6.757233 6.185249 -0.916597 # H2
241 81 1 0.417 -1.229174 0.901111 -2.207744 # H1
242 81 2 -0.834 -0.877437 0.292689 -2.857618 # O
243 81 1 0.417 -1.411724 -0.495759 -2.762114 # H2
244 82 1 0.417 2.905592 3.096419 2.297999 # H1
245 82 2 -0.834 3.328116 3.685278 2.923260 # O
246 82 1 0.417 3.338277 4.535293 2.483257 # H2
247 83 1 0.417 -4.661700 -7.047439 7.337994 # H1
248 83 2 -0.834 -4.016675 -7.671113 7.671471 # O
249 83 1 0.417 -3.170539 -7.288207 7.439804 # H2
250 84 1 0.417 5.184342 -1.618562 5.402445 # H1
251 84 2 -0.834 5.436442 -2.499405 5.679560 # O
252 84 1 0.417 4.796274 -3.075043 5.261159 # H2
253 85 1 0.417 0.911293 2.945907 2.307107 # H1
254 85 2 -0.834 0.283984 3.566637 1.936420 # O
255 85 1 0.417 0.416536 4.370615 2.438696 # H2
256 86 1 0.417 -4.360058 0.946549 -1.278652 # H1
257 86 2 -0.834 -3.700017 0.663053 -1.911271 # O
258 86 1 0.417 -3.351635 -0.150403 -1.546373 # H2
259 87 1 0.417 -3.642704 2.649401 -0.311032 # H1
260 87 2 -0.834 -2.786817 3.077497 -0.331585 # O
261 87 1 0.417 -2.986130 4.013514 -0.312142 # H2
262 88 1 0.417 1.013098 7.463706 5.177602 # H1
263 88 2 -0.834 0.084740 7.240733 5.245907 # O
264 88 1 0.417 -0.087905 6.694410 4.479124 # H2
265 89 1 0.417 -5.131596 5.865126 -4.679317 # H1
266 89 2 -0.834 -5.278058 6.768902 -4.958547 # O
267 89 1 0.417 -5.995309 6.711799 -5.589834 # H2
268 90 1 0.417 4.810213 4.673222 -1.679366 # H1
269 90 2 -0.834 5.347978 3.943024 -1.985719 # O
270 90 1 0.417 4.821893 3.527681 -2.669061 # H2
271 91 1 0.417 7.059257 -1.448896 -4.558029 # H1
272 91 2 -0.834 7.669761 -1.594485 -3.835312 # O
273 91 1 0.417 7.129647 -1.960549 -3.134951 # H2
274 92 1 0.417 -4.585190 2.704892 6.969181 # H1
275 92 2 -0.834 -5.399790 3.171370 7.156415 # O
276 92 1 0.417 -5.151769 4.095876 7.159042 # H2
277 93 1 0.417 -2.396128 -4.864596 -2.542774 # H1
278 93 2 -0.834 -3.321251 -4.743511 -2.756588 # O
279 93 1 0.417 -3.727562 -5.585104 -2.549549 # H2
280 94 1 0.417 -6.918617 5.089193 7.670954 # H1
281 94 2 -0.834 -7.671877 5.128850 7.081668 # O
282 94 1 0.417 -7.293838 5.067051 6.204457 # H2
283 95 1 0.417 -7.088152 3.332607 -0.450737 # H1
284 95 2 -0.834 -7.676463 3.352145 0.304075 # O
285 95 1 0.417 -7.482309 4.182833 0.738234 # H2
286 96 1 0.417 6.208981 3.538540 5.197452 # H1
287 96 2 -0.834 7.164114 3.601363 5.195249 # O
288 96 1 0.417 7.343297 4.536992 5.288646 # H2
289 97 1 0.417 -1.838439 7.358764 2.409453 # H1
290 97 2 -0.834 -0.936050 7.670147 2.338988 # O
291 97 1 0.417 -0.431059 6.891429 2.104865 # H2
292 98 1 0.417 -0.608453 3.288645 -1.539657 # H1
293 98 2 -0.834 0.189224 2.942011 -1.939391 # O
294 98 1 0.417 -0.082385 2.662445 -2.813636 # H2
295 99 1 0.417 -3.842155 2.847920 4.012065 # H1
296 99 2 -0.834 -4.312684 2.198749 4.534952 # O
297 99 1 0.417 -3.657485 1.529697 4.733230 # H2
298 100 1 0.417 4.900700 7.108512 0.161014 # H1
299 100 2 -0.834 4.349052 7.569720 -0.470812 # O
300 100 1 0.417 3.594799 6.993862 -0.596201 # H2
301 101 1 0.417 1.451160 -0.254033 -3.795646 # H1
302 101 2 -0.834 1.345354 -0.952942 -4.441062 # O
303 101 1 0.417 1.738154 -1.722142 -4.028423 # H2
304 102 1 0.417 -3.311963 -7.529672 -2.319068 # H1
305 102 2 -0.834 -2.366666 -7.673728 -2.362574 # O
306 102 1 0.417 -1.986021 -6.801440 -2.260330 # H2
307 103 1 0.417 7.670524 6.173246 7.670800 # H1
308 103 2 -0.834 7.671206 5.216047 7.672198 # O
309 103 1 0.417 6.744751 4.975399 7.670830 # H2
310 104 1 0.417 5.668455 3.053231 -6.843903 # H1
311 104 2 -0.834 6.128436 3.178155 -7.673989 # O
312 104 1 0.417 6.885483 3.719302 -7.449779 # H2
313 105 1 0.417 3.980225 -6.911358 2.136420 # H1
314 105 2 -0.834 3.548781 -7.669896 2.529749 # O
315 105 1 0.417 2.643758 -7.388472 2.663784 # H2
316 106 1 0.417 -2.144951 3.185473 -2.815730 # H1
317 106 2 -0.834 -2.411948 2.899357 -3.689275 # O
318 106 1 0.417 -2.848759 3.661984 -4.068522 # H2
319 107 1 0.417 -2.830208 6.750508 -4.451260 # H1
320 107 2 -0.834 -2.359925 7.473733 -4.866002 # O
321 107 1 0.417 -1.563061 7.073602 -5.214048 # H2
322 108 1 0.417 -6.567058 0.301047 -2.432602 # H1
323 108 2 -0.834 -6.736757 0.196916 -1.496338 # O
324 108 1 0.417 -7.651989 0.455507 -1.388111 # H2
325 109 1 0.417 -1.995595 -2.415878 6.639526 # H1
326 109 2 -0.834 -1.831548 -1.730866 7.287661 # O
327 109 1 0.417 -2.690618 -1.551306 7.669746 # H2
328 110 1 0.417 5.835817 4.720178 -5.728169 # H1
329 110 2 -0.834 6.308143 5.545210 -5.839802 # O
330 110 1 0.417 5.729824 6.081315 -6.382361 # H2
331 111 1 0.417 4.119649 7.673658 2.016407 # H1
332 111 2 -0.834 4.866603 7.604761 2.611004 # O
333 111 1 0.417 5.196379 6.715755 2.480055 # H2
334 112 1 0.417 -6.979011 2.042594 -6.433916 # H1
335 112 2 -0.834 -7.669783 2.237854 -7.067114 # O
336 112 1 0.417 -7.463798 3.117509 -7.383355 # H2
337 113 1 0.417 -6.169846 7.670653 7.670259 # H1
338 113 2 -0.834 -5.412861 7.084815 7.670175 # O
339 113 1 0.417 -4.655945 7.670742 7.670043 # H2
340 114 1 0.417 -1.987682 -4.577260 -7.615066 # H1
341 114 2 -0.834 -1.144671 -4.487029 -7.170742 # O
342 114 1 0.417 -1.297587 -4.836185 -6.292711 # H2
343 115 1 0.417 4.209909 -0.895514 0.492307 # H1
344 115 2 -0.834 5.114785 -1.202049 0.433421 # O
345 115 1 0.417 5.099740 -1.862853 -0.258926 # H2
346 116 1 0.417 -6.968690 4.856479 -4.636234 # H1
347 116 2 -0.834 -7.669753 4.759871 -5.280757 # O
348 116 1 0.417 -7.465032 5.405962 -5.956692 # H2
349 117 1 0.417 -0.547323 3.833056 -6.895290 # H1
350 117 2 -0.834 -0.043667 4.343796 -7.529093 # O
351 117 1 0.417 0.531608 4.890450 -6.993874 # H2
352 118 1 0.417 7.275710 1.038462 7.544178 # H1
353 118 2 -0.834 7.542930 1.948914 7.670281 # O
354 118 1 0.417 6.785930 2.462449 7.388388 # H2
355 119 1 0.417 -7.116579 0.808751 2.785310 # H1
356 119 2 -0.834 -7.674608 0.114170 2.435464 # O
357 119 1 0.417 -7.536505 0.149243 1.488928 # H2
358 120 1 0.417 2.309234 5.920953 5.321878 # H1
359 120 2 -0.834 2.098044 4.987375 5.329781 # O
360 120 1 0.417 1.141532 4.957871 5.350882 # H2
361 121 1 0.417 -6.235757 0.983497 5.571681 # H1
362 121 2 -0.834 -6.404677 0.139353 5.153209 # O
363 121 1 0.417 -5.966881 0.200505 4.304193 # H2
364 122 1 0.417 2.679326 -5.283891 3.741480 # H1
365 122 2 -0.834 2.695835 -5.684444 4.610684 # O
366 122 1 0.417 3.607188 -5.949089 4.735702 # H2
367 123 1 0.417 -6.609673 -7.319029 0.965604 # H1
368 123 2 -0.834 -6.410685 -7.671915 1.832845 # O
369 123 1 0.417 -6.563129 -6.939963 2.430540 # H2
370 124 1 0.417 -3.518300 0.587687 -4.469000 # H1
371 124 2 -0.834 -2.865516 0.293242 -5.104144 # O
372 124 1 0.417 -2.460758 1.099659 -5.423665 # H2
373 125 1 0.417 1.366317 -5.307127 0.347356 # H1
374 125 2 -0.834 1.998969 -5.981940 0.593549 # O
375 125 1 0.417 2.852917 -5.572168 0.455380 # H2
376 126 1 0.417 -6.876430 3.417591 5.153300 # H1
377 126 2 -0.834 -7.670913 3.070992 4.747223 # O
378 126 1 0.417 -7.353599 2.460138 4.082090 # H2
379 127 1 0.417 7.670130 -2.226860 6.768698 # H1
380 127 2 -0.834 7.670176 -1.904416 7.669954 # O
381 127 1 0.417 7.555138 -0.957853 7.586191 # H2
382 128 1 0.417 -0.658993 -6.947959 -7.398993 # H1
383 128 2 -0.834 -0.093317 -7.670701 -7.670812 # O
384 128 1 0.417 0.620473 -7.669728 -7.033055 # H2
385 129 1 0.417 -6.613877 -4.102967 -5.964583 # H1
386 129 2 -0.834 -7.496956 -4.437255 -6.121601 # O
387 129 1 0.417 -7.670424 -5.015202 -5.378554 # H2
388 130 1 0.417 1.245145 3.381166 -5.594449 # H1
389 130 2 -0.834 0.820920 2.630059 -5.179595 # O
390 130 1 0.417 -0.088070 2.904488 -5.058529 # H2
391 131 1 0.417 7.216165 -4.860889 -2.452614 # H1
392 131 2 -0.834 7.669808 -4.135097 -2.024050 # O
393 131 1 0.417 6.983479 -3.489815 -1.854357 # H2
394 132 1 0.417 4.757726 -6.753749 7.669690 # H1
395 132 2 -0.834 4.257747 -7.552281 7.500576 # O
396 132 1 0.417 4.306733 -7.669706 6.551869 # H2
397 133 1 0.417 -6.495068 -2.650488 -4.531816 # H1
398 133 2 -0.834 -7.227896 -2.323401 -4.010078 # O
399 133 1 0.417 -7.670424 -1.697728 -4.583606 # H2
400 134 1 0.417 4.404435 -4.506584 -7.244585 # H1
401 134 2 -0.834 5.344949 -4.548539 -7.417514 # O
402 134 1 0.417 5.582268 -3.656701 -7.671554 # H2
403 135 1 0.417 3.479239 5.914380 -5.924433 # H1
404 135 2 -0.834 3.518267 6.326078 -5.061176 # O
405 135 1 0.417 4.009999 5.706701 -4.521915 # H2
406 136 1 0.417 -2.031573 4.249865 6.746774 # H1
407 136 2 -0.834 -2.699311 4.843577 7.090087 # O
408 136 1 0.417 -3.228802 4.298450 7.672073 # H2
409 137 1 0.417 1.426366 7.573669 3.150417 # H1
410 137 2 -0.834 1.967748 6.809991 2.950582 # O
411 137 1 0.417 1.347061 6.149987 2.641756 # H2
412 138 1 0.417 -5.672140 -5.849818 -7.231403 # H1
413 138 2 -0.834 -6.093121 -6.588290 -7.671479 # O
414 138 1 0.417 -7.028562 -6.459601 -7.514565 # H2
415 139 1 0.417 -7.481994 1.811943 6.898412 # H1
416 139 2 -0.834 -7.672776 1.282906 7.672979 # O
417 139 1 0.417 -7.371041 0.403959 7.443542 # H2
418 140 1 0.417 -2.684890 7.327629 7.411051 # H1
419 140 2 -0.834 -1.800380 7.670139 7.539741 # O
420 140 1 0.417 -1.231070 6.906646 7.443847 # H2
421 141 1 0.417 -0.661157 -6.785859 3.239720 # H1
422 141 2 -0.834 -0.343385 -7.669677 3.055009 # O
423 141 1 0.417 0.589836 -7.556383 2.874748 # H2
424 142 1 0.417 7.368836 0.128126 -6.117066 # H1
425 142 2 -0.834 7.673748 0.778808 -6.749421 # O
426 142 1 0.417 6.966159 0.839758 -7.391164 # H2
427 143 1 0.417 0.219133 5.073646 -4.937845 # H1
428 143 2 -0.834 -0.274661 5.218385 -4.130720 # O
429 143 1 0.417 -1.191866 5.141122 -4.393394 # H2
430 144 1 0.417 -3.829980 7.661465 -6.879322 # H1
431 144 2 -0.834 -4.367626 7.670154 -7.671213 # O
432 144 1 0.417 -5.184593 7.244428 -7.411298 # H2
433 145 1 0.417 -0.059318 4.863473 -0.339100 # H1
434 145 2 -0.834 -0.855897 5.368032 -0.174434 # O
435 145 1 0.417 -1.299496 4.893527 0.528628 # H2
436 146 1 0.417 -3.590838 7.034871 -0.338096 # H1
437 146 2 -0.834 -3.135961 7.600041 0.286325 # O
438 146 1 0.417 -2.206635 7.452213 0.111018 # H2
439 147 1 0.417 3.627638 -0.194481 2.272612 # H1
440 147 2 -0.834 2.891945 0.411938 2.187505 # O
441 147 1 0.417 2.256415 0.110872 2.836883 # H2
442 148 1 0.417 7.091125 -1.174942 -1.270055 # H1
443 148 2 -0.834 7.538885 -0.343895 -1.111615 # O
444 148 1 0.417 6.846158 0.314927 -1.159714 # H2
445 149 1 0.417 -4.613874 2.222209 -4.826404 # H1
446 149 2 -0.834 -4.814801 2.880880 -5.491244 # O
447 149 1 0.417 -5.193284 3.610030 -4.999997 # H2
448 150 1 0.417 -5.554708 4.842998 2.550249 # H1
449 150 2 -0.834 -5.790263 3.915400 2.567790 # O
450 150 1 0.417 -4.957514 3.454374 2.466713 # H2
451 151 1 0.417 4.618274 5.373503 1.114830 # H1
452 151 2 -0.834 5.293094 4.726407 0.909603 # O
453 151 1 0.417 6.109305 5.128190 1.207263 # H2
454 152 1 0.417 3.118190 0.323110 -6.996382 # H1
455 152 2 -0.834 2.696410 0.856864 -7.669761 # O
456 152 1 0.417 2.767680 1.754197 -7.344269 # H2
457 153 1 0.417 -5.488161 -0.803301 -5.322140 # H1
458 153 2 -0.834 -5.855986 0.070220 -5.188358 # O
459 153 1 0.417 -5.728248 0.244162 -4.255803 # H2
460 154 1 0.417 -7.670651 -0.238064 -7.412933 # H1
461 154 2 -0.834 -7.291600 -1.107064 -7.544808 # O
462 154 1 0.417 -6.353459 -0.984207 -7.399789 # H2
463 155 1 0.417 -4.237515 -7.502125 4.696976 # H1
464 155 2 -0.834 -3.690141 -6.730318 4.841639 # O
465 155 1 0.417 -4.307623 -5.999322 4.865978 # H2
466 156 1 0.417 -4.717629 1.404202 1.540015 # H1
467 156 2 -0.834 -5.446298 1.432221 0.919944 # O
468 156 1 0.417 -5.415196 2.315684 0.552849 # H2
469 157 1 0.417 6.734721 -5.457656 2.618155 # H1
470 157 2 -0.834 7.661319 -5.224737 2.676435 # O
471 157 1 0.417 7.669688 -4.267712 2.660172 # H2
472 158 1 0.417 7.390262 3.528251 -0.592785 # H1
473 158 2 -0.834 7.672891 2.614618 -0.633128 # O
474 158 1 0.417 7.262749 2.202729 0.127373 # H2
475 159 1 0.417 -6.984457 6.287208 1.915103 # H1
476 159 2 -0.834 -7.669663 6.256090 2.582753 # O
477 159 1 0.417 -7.219657 5.962665 3.374983 # H2
478 160 1 0.417 6.305738 -1.098158 -7.673966 # H1
479 160 2 -0.834 5.362924 -1.170711 -7.525410 # O
480 160 1 0.417 5.281655 -1.371909 -6.593130 # H2
481 161 1 0.417 2.479826 -0.769293 -1.183075 # H1
482 161 2 -0.834 2.289911 0.165435 -1.263376 # O
483 161 1 0.417 3.101039 0.547169 -1.598910 # H2
484 162 1 0.417 -7.225854 -4.775565 3.781445 # H1
485 162 2 -0.834 -7.670460 -4.796525 4.628863 # O
486 162 1 0.417 -7.406631 -3.982860 5.058486 # H2
487 163 1 0.417 0.834547 -4.503430 -5.404604 # H1
488 163 2 -0.834 0.427248 -4.083012 -4.647248 # O
489 163 1 0.417 1.163540 -3.801377 -4.104304 # H2
490 164 1 0.417 0.525469 -5.267406 2.704895 # H1
491 164 2 -0.834 0.630847 -4.316348 2.680049 # O
492 164 1 0.417 0.610126 -4.096849 1.748587 # H2
493 165 1 0.417 -6.776551 -3.932455 -1.414256 # H1
494 165 2 -0.834 -7.669749 -3.598358 -1.331744 # O
495 165 1 0.417 -7.583090 -2.812290 -0.792468 # H2
496 166 1 0.417 -3.585802 -7.013302 1.330885 # H1
497 166 2 -0.834 -3.415632 -7.671358 2.004855 # O
498 166 1 0.417 -2.768057 -7.263883 2.580044 # H2
499 167 1 0.417 -7.599422 7.549569 -1.019532 # H1
500 167 2 -0.834 -7.667599 7.655790 -0.070690 # O
501 167 1 0.417 -6.778322 7.509251 0.251713 # H2
502 168 1 0.417 5.368958 -2.732804 -4.485804 # H1
503 168 2 -0.834 5.413801 -3.563994 -4.013211 # O
504 168 1 0.417 5.036885 -3.372431 -3.154451 # H2
505 169 1 0.417 5.030982 1.077568 -6.048280 # H1
506 169 2 -0.834 5.118704 0.683989 -5.180160 # O
507 169 1 0.417 5.805016 1.196276 -4.752644 # H2
508 170 1 0.417 6.745463 -6.666806 -7.671050 # H1
509 170 2 -0.834 7.671694 -6.425298 -7.669505 # O
510 170 1 0.417 7.670123 -5.468100 -7.669761 # H2
511 171 1 0.417 -5.053265 6.762978 2.296034 # H1
512 171 2 -0.834 -5.019785 7.661852 2.623350 # O
513 171 1 0.417 -5.624473 7.669753 3.365322 # H2
514 172 1 0.417 3.090535 -3.709706 1.142752 # H1
515 172 2 -0.834 2.737910 -3.027176 0.571752 # O
516 172 1 0.417 2.117192 -3.485320 0.005144 # H2
517 173 1 0.417 -7.599089 2.157620 -2.937034 # H1
518 173 2 -0.834 -7.673045 2.071646 -3.887492 # O
519 173 1 0.417 -6.957320 2.605042 -4.233121 # H2
520 174 1 0.417 0.907745 -2.872611 -7.036063 # H1
521 174 2 -0.834 0.711021 -2.183415 -7.670523 # O
522 174 1 0.417 1.214006 -1.427520 -7.367438 # H2
523 175 1 0.417 -3.202012 7.083238 5.494573 # H1
524 175 2 -0.834 -2.854517 7.469926 4.690862 # O
525 175 1 0.417 -2.220393 6.828420 4.370568 # H2
526 176 1 0.417 5.835244 0.831619 3.406807 # H1
527 176 2 -0.834 5.507911 1.720174 3.546644 # O
528 176 1 0.417 4.558009 1.619174 3.607612 # H2
529 177 1 0.417 -7.670520 -6.507235 7.571159 # H1
530 177 2 -0.834 -7.622861 -7.457979 7.671387 # O
531 177 1 0.417 -6.702839 -7.670080 7.513892 # H2
532 178 1 0.417 0.212824 5.541883 7.169650 # H1
533 178 2 -0.834 0.241360 4.727452 7.671766 # O
534 178 1 0.417 0.258639 4.037252 7.008775 # H2
535 179 1 0.417 5.083485 5.495231 4.060303 # H1
536 179 2 -0.834 5.101669 5.769058 4.977320 # O
537 179 1 0.417 5.049289 6.724230 4.943641 # H2
538 180 1 0.417 1.189594 6.856202 -0.501302 # H1
539 180 2 -0.834 1.173032 7.552952 0.154820 # O
540 180 1 0.417 2.045319 7.532712 0.548443 # H2
541 181 1 0.417 -2.912418 -2.016023 -6.972587 # H1
542 181 2 -0.834 -2.622123 -1.353431 -7.599431 # O
543 181 1 0.417 -1.667046 -1.416491 -7.590250 # H2
544 182 1 0.417 -5.383415 -0.380617 7.375013 # H1
545 182 2 -0.834 -4.762290 0.285253 7.670061 # O
546 182 1 0.417 -4.094638 0.311162 6.984641 # H2
547 183 1 0.417 -1.778300 -3.134771 4.209241 # H1
548 183 2 -0.834 -2.530509 -3.718194 4.109088 # O
549 183 1 0.417 -2.147395 -4.591198 4.023537 # H2
550 184 1 0.417 4.619653 -1.060667 7.553701 # H1
551 184 2 -0.834 5.152011 -0.273857 7.670992 # O
552 184 1 0.417 5.576789 -0.142930 6.823258 # H2
553 185 1 0.417 6.655344 -7.478855 4.800530 # H1
554 185 2 -0.834 5.941139 -6.841637 4.810345 # O
555 185 1 0.417 5.145747 -7.371869 4.760985 # H2
556 186 1 0.417 2.121391 6.356148 7.421620 # H1
557 186 2 -0.834 1.956064 7.283751 7.590297 # O
558 186 1 0.417 2.827264 7.672036 7.670770 # H2
559 187 1 0.417 4.216954 2.367594 7.203429 # H1
560 187 2 -0.834 4.349859 2.250604 6.262748 # O
561 187 1 0.417 3.465849 2.229663 5.896252 # H2
562 188 1 0.417 6.949380 -2.925904 0.068035 # H1
563 188 2 -0.834 7.671844 -2.752711 0.671593 # O
564 188 1 0.417 7.274449 -2.252362 1.384305 # H2
565 189 1 0.417 -3.208990 1.337487 -7.422055 # H1
566 189 2 -0.834 -2.765942 2.148213 -7.672381 # O
567 189 1 0.417 -3.433787 2.826860 -7.574134 # H2
568 190 1 0.417 -2.544260 4.006539 -6.014900 # H1
569 190 2 -0.834 -2.748250 4.885949 -6.333111 # O
570 190 1 0.417 -1.927585 5.370260 -6.242652 # H2
571 191 1 0.417 6.452751 -7.452633 2.440806 # H1
572 191 2 -0.834 6.370934 -7.670006 1.512212 # O
573 191 1 0.417 6.996164 -7.092306 1.074511 # H2
574 192 1 0.417 -5.603534 3.838291 -7.662981 # H1
575 192 2 -0.834 -5.632530 4.795026 -7.669974 # O
576 192 1 0.417 -5.525099 5.045094 -6.752283 # H2
577 193 1 0.417 -0.234198 -7.588743 -1.060497 # H1
578 193 2 -0.834 -0.376882 -7.670028 -0.117488 # O
579 193 1 0.417 -0.881751 -6.891293 0.116844 # H2
580 194 1 0.417 -4.691887 -2.459096 -3.266208 # H1
581 194 2 -0.834 -4.722973 -2.119222 -2.371920 # O
582 194 1 0.417 -4.755875 -2.900163 -1.819397 # H2
583 195 1 0.417 6.718773 -7.146529 7.669793 # H1
584 195 2 -0.834 7.482512 -7.669755 7.426547 # O
585 195 1 0.417 7.669775 -7.415378 6.522966 # H2
586 196 1 0.417 7.099521 6.942952 5.915607 # H1
587 196 2 -0.834 7.391190 7.670056 5.365624 # O
588 196 1 0.417 6.781443 7.672465 4.627767 # H2
589 197 1 0.417 -3.517541 -7.336386 -4.700350 # H1
590 197 2 -0.834 -4.407957 -7.660118 -4.564005 # O
591 197 1 0.417 -4.969827 -6.983120 -4.941110 # H2
592 198 1 0.417 2.119573 -6.364477 -6.811548 # H1
593 198 2 -0.834 2.401299 -6.005039 -7.652777 # O
594 198 1 0.417 3.347312 -6.149826 -7.670895 # H2
595 199 1 0.417 -7.672078 4.127494 -2.401482 # H1
596 199 2 -0.834 -7.672869 5.055178 -2.165614 # O
597 199 1 0.417 -6.747295 5.298306 -2.144834 # H2
598 200 1 0.417 0.678245 -1.968246 7.664186 # H1
599 200 2 -0.834 0.905402 -2.898079 7.670678 # O
600 200 1 0.417 0.062269 -3.351165 7.662151 # H2

Bonds

1 1 2 1 # O H1
2 1 2 3 # O H2
3 1 5 4 # O H1
4 1 5 6 # O H2
5 1 8 7 # O H1
6 1 8 9 # O H2
7 1 11 10 # O H1
8 1 11 12 # O H2
9 1 14 13 # O H1
10 1 14 15 # O H2
11 1 17 16 # O H1
12 1 17 18 # O H2
13 1 20 19 # O H1
14 1 20 21 # O H2
15 1 23 22 # O H1
16 1 23 24 # O H2
17 1 26 25 # O H1
18 1 26 27 # O H2
19 1 29 28 # O H1