LAMMPS data file via write_data, version 20 Oct 2016, timestep = 1000

2709 atoms
2 atom types
1806 bonds
1 bond types
903 angles
1 angle types

-1.5002499064242288e+01 1.5002499064242288e+01 xlo xhi
-1.5002499064242288e+01 1.5002499064242288e+01 ylo yhi
-1.5002499064242288e+01 1.5002499064242288e+01 zlo zhi

Masses

1 1.008
2 15.9994

Pair Coeffs # lj/cut/coul/long

1 0 0
2 0.152 3.1507

Bond Coeffs # harmonic

1 553 0.9572

Angle Coeffs # harmonic

1 100 104.52

Atoms # full

142 48 1 4.1699999999999998e-01 1.3416192225260504e+01 -1.2499534286802851e+01 -1.4332337963543901e+01 -1 0 0
143 48 2 -8.3399999999999996e-01 1.3545357113572150e+01 -1.3229797773892301e+01 -1.4974540698084377e+01 -1 0 0
144 48 1 4.1699999999999998e-01 1.3731793506079404e+01 -1.2744178620398676e+01 1.4211182737527322e+01 -1 0 -1
270 90 1 4.1699999999999998e-01 -8.7832685300890887e+00 -1.3704047937810090e+01 -1.2059270649290701e+01 0 0 0
640 214 1 4.1699999999999998e-01 -1.3104507131831111e+01 -1.3117513188800377e+01 -1.2220589630273627e+01 0 0 0
641 214 2 -8.3399999999999996e-01 -1.3303358731995132e+01 -1.2374384618266182e+01 -1.2847616092541699e+01 0 0 0
642 214 1 4.1699999999999998e-01 -1.4253712731054433e+01 -1.2416754739209884e+01 -1.2905862384607179e+01 0 0 0
1225 409 1 4.1699999999999998e-01 -1.3432025205977110e+01 -1.4082413354382769e+01 -9.9240269896163689e+00 0 0 0
1226 409 2 -8.3399999999999996e-01 -1.4153276584112531e+01 -1.4122126164907028e+01 -9.2683494819547931e+00 0 0 0
1227 409 1 4.1699999999999998e-01 -1.4089954367198349e+01 -1.3336294954480209e+01 -8.7142515100162257e+00 0 0 0
1297 433 1 4.1699999999999998e-01 -9.8615712950175407e+00 -1.2186329254547788e+01 -7.7108163765995261e+00 0 0 0
1453 485 1 4.1699999999999998e-01 -1.1357945364466106e+01 -1.0613887311197264e+01 -1.4920837861141605e+01 0 0 0
1454 485 2 -8.3399999999999996e-01 -1.1165485810668395e+01 -1.1495242821710406e+01 -1.4605082169165820e+01 0 0 0
1455 485 1 4.1699999999999998e-01 -1.1964825319495178e+01 -1.1692069254842204e+01 -1.4074763778506542e+01 0 0 0
1660 554 1 4.1699999999999998e-01 1.2663728181157259e+01 -1.2570813946130427e+01 -9.9768782516463173e+00 -1 0 0
1661 554 2 -8.3399999999999996e-01 1.2972148956946265e+01 -1.2511956785580363e+01 -1.0938940885315445e+01 -1 0 0
1662 554 1 4.1699999999999998e-01 1.3743177372010372e+01 -1.1951715672069970e+01 -1.0843251195536055e+01 -1 0 0
2305 769 1 4.1699999999999998e-01 -1.1924739777781431e+01 -1.1239945324080837e+01 -1.1518332487078411e+01 0 0 0
2326 776 1 4.1699999999999998e-01 -8.6078088022289503e+00 -1.2737243681644109e+01 -1.0075957613976890e+01 0 0 0
2327 776 2 -8.3399999999999996e-01 -9.4161013258164985e+00 -1.2891768983287312e+01 -1.0611440889875569e+01 0 0 0
2328 776 1 4.1699999999999998e-01 -1.0101722010570240e+01 -1.2507366640610705e+01 -1.0060551510064700e+01 0 0 0
19 7 1 4.1699999999999998e-01 -3.2499839447893315e+00 -1.1677734742996938e+01 -1.0896380207303134e+01 0 0 0
20 7 2 -8.3399999999999996e-01 -4.0158079312072541e+00 -1.2261110119204039e+01 -1.1017531373278345e+01 0 0 0
268 90 1 4.1699999999999998e-01 -9.5130189219883174e+00 -1.4113920683745532e+01 -1.3364395804973441e+01 0 0 0
269 90 2 -8.3399999999999996e-01 -8.6605046273554240e+00 -1.3744604328251198e+01 -1.3048251782688066e+01 0 0 0
400 134 1 4.1699999999999998e-01 -3.4683045861509512e+00 -7.5660948994296788e+00 -1.2081100921270826e+01 0 0 0
402 134 1 4.1699999999999998e-01 -3.3535331439039568e+00 -6.1084954427440907e+00 -1.1699724108663826e+01 0 0 0
1258 420 1 4.1699999999999998e-01 -5.0378953859473636e+00 -1.3481859168648480e+01 -9.7118569076692367e+00 0 0 0
1259 420 2 -8.3399999999999996e-01 -5.1333620749582556e+00 -1.3608013092309886e+01 -8.7432040670987572e+00 0 0 0
1260 420 1 4.1699999999999998e-01 -4.5538931607336712e+00 -1.4373044918901369e+01 -8.5735514166236797e+00 0 0 0
1399 467 1 4.1699999999999998e-01 -1.0797855432616961e+00 -1.2017313412018662e+01 -1.1230129134957235e+01 0 0 0
1400 467 2 -8.3399999999999996e-01 -1.4909399579665612e+00 -1.1179289696871736e+01 -1.0917321011477332e+01 0 0 0
1401 467 1 4.1699999999999998e-01 -8.8911020265217988e-01 -1.0500723251147718e+01 -1.1268519970543853e+01 0 0 0
1657 553 1 4.1699999999999998e-01 -5.4023608623150334e+00 -1.0927803278439770e+01 -1.1119774772885863e+01 0 0 0
1658 553 2 -8.3399999999999996e-01 -6.0887215545744828e+00 -1.0240765280998311e+01 -1.1077977962804642e+01 0 0 0
1659 553 1 4.1699999999999998e-01 -6.7385881411294504e+00 -1.0630384652789148e+01 -1.0474320803530457e+01 0 0 0
1864 622 1 4.1699999999999998e-01 -1.3712773723327196e+00 1.3826060951481901e+01 -9.3502562954878368e+00 0 -1 0
2407 803 1 4.1699999999999998e-01 -3.6805767459718401e+00 1.3963896264286483e+01 -1.2219727852582375e+01 0 -1 0
2408 803 2 -8.3399999999999996e-01 -4.4601221675783638e+00 1.4506161672229332e+01 -1.2400331326189820e+01 0 -1 0
2409 803 1 4.1699999999999998e-01 -5.0317580369651100e+00 1.4398839699859364e+01 -1.1626661529638140e+01 0 -1 0
2536 846 1 4.1699999999999998e-01 -6.0816418739403888e+00 -1.3638081657533354e+01 1.4354864124608850e+01 0 0 -1
2537 846 2 -8.3399999999999996e-01 -5.6917539202328173e+00 -1.2874728597097873e+01 1.3954935557077132e+01 0 0 -1
2538 846 1 4.1699999999999998e-01 -6.1048439885498684e+00 -1.2932400463651135e+01 1.3101490507631881e+01 0 0 -1
199 67 1 4.1699999999999998e-01 -2.4602909781825058e-01 -1.4443707081362001e+01 -1.2675493370233729e+01 0 0 0
200 67 2 -8.3399999999999996e-01 -7.8214229733666807e-01 -1.3704041852454523e+01 -1.2382353158719896e+01 0 0 0
201 67 1 4.1699999999999998e-01 -1.3361109546040875e+00 -1.4092158540345391e+01 -1.1671248896221101e+01 0 0 0
373 125 1 4.1699999999999998e-01 1.9362119870291616e+00 -1.2251503706665305e+01 -1.2830590534800486e+01 0 0 0
374 125 2 -8.3399999999999996e-01 2.3743165525693408e+00 -1.2965383197385338e+01 -1.3343685739112379e+01 0 0 0
375 125 1 4.1699999999999998e-01 2.2473564304685363e+00 -1.2705297972513055e+01 -1.4249589374194633e+01 0 0 0
487 163 1 4.1699999999999998e-01 9.3993187704092074e-01 -9.3643461992593782e+00 -1.0669865607044065e+01 0 0 0
488 163 2 -8.3399999999999996e-01 1.0138731938661978e+00 -9.1692640837974775e+00 -9.7234593325318119e+00 0 0 0
489 163 1 4.1699999999999998e-01 3.5713890864607095e-01 -8.4497105997909081e+00 -9.6295445102356840e+00 0 0 0
1282 428 1 4.1699999999999998e-01 4.1260518334403873e+00 -1.4891290524698254e+01 1.4272900577039731e+01 0 0 -1
1702 568 1 4.1699999999999998e-01 1.5474311451121331e-01 -9.8216071055142464e+00 -1.3278174739153306e+01 0 0 0
1703 568 2 -8.3399999999999996e-01 -2.6977757020085502e-01 -9.4089335738624982e+00 -1.2495861818137922e+01 0 0 0
1704 568 1 4.1699999999999998e-01 -1.0011120573127357e+00 -8.9289183894934627e+00 -1.2894506981652338e+01 0 0 0
1788 596 1 4.1699999999999998e-01 -9.4172085745329681e-01 -1.4086743951859951e+01 -7.7610459283153777e+00 0 0 0
1865 622 2 -8.3399999999999996e-01 -5.6484394886097467e-01 1.4152711300477174e+01 -9.7654549425938022e+00 0 -1 0
1866 622 1 4.1699999999999998e-01 -1.0801757107657505e-02 1.4261958127733626e+01 -8.9881806073231605e+00 0 -1 0
1897 633 1 4.1699999999999998e-01 3.8171667137006282e+00 -1.0132234983810608e+01 -1.4063140486329027e+01 0 0 0
2344 782 1 4.1699999999999998e-01 2.6171822376287261e+00 -1.3561547872463169e+01 -1.0859210429014965e+01 0 0 0
2345 782 2 -8.3399999999999996e-01 2.4565158628217287e+00 -1.4420162442726689e+01 -1.1279468421377004e+01 0 0 0
2346 782 1 4.1699999999999998e-01 2.2153035051252767e+00 -1.4162306573324459e+01 -1.2201731277379340e+01 0 0 0
61 21 1 4.1699999999999998e-01 4.3399906548563436e+00 1.3663498000202035e+01 -9.6536475969233297e+00 0 -1 0
62 21 2 -8.3399999999999996e-01 5.1670661981819732e+00 1.4019578105240315e+01 -1.0004498332952080e+01 0 -1 0
63 21 1 4.1699999999999998e-01 5.4174298906114746e+00 1.4638792081989534e+01 -9.3056365010423736e+00 0 -1 0
514 172 1 4.1699999999999998e-01 9.5847575900058448e+00 1.2888521693595187e+01 -9.6466265244634712e+00 0 -1 0
515 172 2 -8.3399999999999996e-01 8.6461856656790310e+00 1.2663565276033784e+01 -9.5923632597727551e+00 0 -1 0
516 172 1 4.1699999999999998e-01 8.3927744077417845e+00 1.3127230327751635e+01 -8.7582296385150809e+00 0 -1 0
931 311 1 4.1699999999999998e-01 6.6067626388277798e+00 -1.2796559481099838e+01 -1.2248364916897099e+01 0 0 0
932 311 2 -8.3399999999999996e-01 7.1236432787136730e+00 -1.2054096788888753e+01 -1.1949960479408372e+01 0 0 0
933 311 1 4.1699999999999998e-01 7.3288569570567441e+00 -1.2369922800212777e+01 -1.1036540549040168e+01 0 0 0
1283 428 2 -8.3399999999999996e-01 3.6016089189834295e+00 -1.4786226931187977e+01 1.3470840598048193e+01 0 0 -1
1284 428 1 4.1699999999999998e-01 4.2728456622138387e+00 -1.4774906240759561e+01 1.2767625182281428e+01 0 0 -1
1898 633 2 -8.3399999999999996e-01 3.8864170605814174e+00 -9.4290436196263698e+00 -1.3406932985004762e+01 0 0 0
1899 633 1 4.1699999999999998e-01 4.6766626914543341e+00 -8.9135595017559961e+00 -1.3660107900320300e+01 0 0 0
2038 680 1 4.1699999999999998e-01 6.9525426995129163e+00 -1.3241419137673619e+01 -8.7895231776603797e+00 0 0 0
2039 680 2 -8.3399999999999996e-01 7.5764399584529469e+00 -1.2905416679371694e+01 -9.4642200149081273e+00 0 0 0
2040 680 1 4.1699999999999998e-01 8.2905826862411214e+00 -1.3555556491058747e+01 -9.4252797845763041e+00 0 0 0
2151 717 1 4.1699999999999998e-01 9.4672813974633598e+00 -1.1924707430128828e+01 -1.4769094503977914e+01 0 0 0
2468 823 2 -8.3399999999999996e-01 7.1295713615925251e+00 -1.3996717111156361e+01 -1.4322517815661994e+01 0 0 0
2469 823 1 4.1699999999999998e-01 7.9418391277059648e+00 -1.4353613906935877e+01 -1.3966623259345718e+01 0 0 0
241 81 1 4.1699999999999998e-01 1.3971320965813382e+01 -1.0871491117369468e+01 -7.5447533141193803e+00 0 0 0
242 81 2 -8.3399999999999996e-01 1.4582534957824214e+01 -1.1631825103041344e+01 -7.5731645734212538e+00 0 0 0
243 81 1 4.1699999999999998e-01 -1.4839269925743613e+01 -1.1388458325824988e+01 -8.3085840929730992e+00 1 0 0
415 139 1 4.1699999999999998e-01 1.2663939027213504e+01 -1.0304952418943198e+01 -1.4129782329976214e+01 0 0 0
416 139 2 -8.3399999999999996e-01 1.3274816924560854e+01 -1.0819734338927667e+01 -1.3577789442722215e+01 0 0 0
417 139 1 4.1699999999999998e-01 1.2973341072358282e+01 -1.0541625999340054e+01 -1.2696338660675998e+01 0 0 0
1196 399 2 -8.3399999999999996e-01 1.1578548692736588e+01 -9.5016351981951459e+00 -1.1367955039344952e+01 0 0 0
1459 487 1 4.1699999999999998e-01 9.9573246974672323e+00 -1.1908241302050065e+01 -1.1504269159548683e+01 0 0 0
1460 487 2 -8.3399999999999996e-01 9.8197953354647272e+00 -1.1422735196490644e+01 -1.0675308515342675e+01 0 0 0
1461 487 1 4.1699999999999998e-01 9.2563762705198531e+00 -1.2065689143119759e+01 -1.0184097596343365e+01 0 0 0
1480 494 1 4.1699999999999998e-01 1.0400185223946687e+01 -9.4735665370631637e+00 -7.0875870911636962e+00 0 0 0
1482 494 1 4.1699999999999998e-01 1.1341355527811285e+01 -1.0451255883030356e+01 -6.4273505979536596e+00 0 0 0
2150 717 2 -8.3399999999999996e-01 1.0263632365089233e+01 -1.1696943874717430e+01 -1.4242452005255730e+01 0 0 0
2455 819 1 4.1699999999999998e-01 1.2345243856033465e+01 -1.2650603657349860e+01 -7.6646180226961809e+00 0 0 0
2456 819 2 -8.3399999999999996e-01 1.1865328169330351e+01 -1.2407202411641753e+01 -8.4633227957660608e+00 0 0 0
2457 819 1 4.1699999999999998e-01 1.1033075680893976e+01 -1.2062365332635085e+01 -8.0991459112625872e+00 0 0 0
2467 823 1 4.1699999999999998e-01 6.5779665137114529e+00 -1.3979829243351254e+01 -1.3524982528722894e+01 0 0 0
361 121 1 4.1699999999999998e-01 -9.4667925517693572e+00 -6.5409256730996388e+00 1.2965449102310705e+01 0 0 -1
362 121 2 -8.3399999999999996e-01 -9.8643153257546530e+00 -5.7634243365934523e+00 1.3360952363909201e+01 0 0 -1
363 121 1 4.1699999999999998e-01 -9.5465715622135683e+00 -5.8136114168690458e+00 1.4287515849378389e+01 0 0 -1
442 148 1 4.1699999999999998e-01 -9.1888049503660998e+00 -9.6881275988332334e+00 -1.1268664879842694e+01 0 0 0
443 148 2 -8.3399999999999996e-01 -9.6118077824391399e+00 -9.4157038385816669e+00 -1.0436609363505980e+01 0 0 0
1273 425 1 4.1699999999999998e-01 -1.4404030769845420e+01 -8.7660456419037693e+00 -1.3394021581358452e+01 0 0 0
1274 425 2 -8.3399999999999996e-01 -1.3862776590469394e+01 -9.2979359760465101e+00 -1.2784973861662474e+01 0 0 0
1275 425 1 4.1699999999999998e-01 -1.3788537046307839e+01 -1.0113750292917269e+01 -1.3323254260082004e+01 0 0 0
1318 440 1 4.1699999999999998e-01 -1.3528843692399660e+01 -2.0544672849554937e+00 -1.0816299285934683e+01 0 0 0
1320 440 1 4.1699999999999998e-01 -1.3715652550330073e+01 -9.6442595971692313e-01 -9.7404244237608335e+00 0 0 0
1545 515 1 4.1699999999999998e-01 -1.2279905672139959e+01 -9.4171646004562817e+00 -9.1958215568765524e+00 0 0 0
2203 735 1 4.1699999999999998e-01 -1.1389629838634717e+01 -7.1201902275614568e+00 -1.1017935694516300e+01 0 0 0
2204 735 2 -8.3399999999999996e-01 -1.1475721850747545e+01 -6.8768220724598477e+00 -1.1955932356809003e+01 0 0 0
2205 735 1 4.1699999999999998e-01 -1.1909051254994841e+01 -7.6560531965915342e+00 -1.2339083209106159e+01 0 0 0
2306 769 2 -8.3399999999999996e-01 -1.2030999469459731e+01 -1.0633097430042856e+01 -1.0784641989987996e+01 0 0 0
2307 769 1 4.1699999999999998e-01 -1.2964742066725394e+01 -1.0641775885747071e+01 -1.0548465304972025e+01 0 0 0
2545 849 1 4.1699999999999998e-01 -1.0750978150124624e+01 -1.7685903097654654e+00 -1.4433590273955348e+01 0 0 0
2546 849 2 -8.3399999999999996e-01 -1.1491871070479418e+01 -1.7324640385135017e+00 1.4959835835907974e+01 0 0 -1
2572 858 1 4.1699999999999998e-01 -9.9193182615753717e+00 -4.6996774032929718e+00 -1.0613409750138208e+01 0 0 0
103 35 1 4.1699999999999998e-01 -5.9279791871383107e+00 -5.1520685931886305e+00 -1.3966227222005204e+01 0 0 0
104 35 2 -8.3399999999999996e-01 -6.3984852728897978e+00 -5.8135897579622435e+00 -1.3461070588101107e+01 0 0 0
105 35 1 4.1699999999999998e-01 -5.7144703860518300e+00 -6.4375977574929637e+00 -1.3178148686197277e+01 0 0 0
281 94 2 -8.3399999999999996e-01 -7.8697967002025297e+00 -2.5177303126365298e+00 -9.7359424369560301e+00 0 0 0
282 94 1 4.1699999999999998e-01 -7.0257848858123175e+00 -2.0645912922278966e+00 -9.8655402759605604e+00 0 0 0
401 134 2 -8.3399999999999996e-01 -2.9148317354569815e+00 -6.9628269344808622e+00 -1.1559205162567853e+01 0 0 0
1102 368 1 4.1699999999999998e-01 -5.7038933215574081e+00 -7.3262405345760495e+00 -1.0131232209439355e+01 0 0 0
1103 368 2 -8.3399999999999996e-01 -6.5722058565296733e+00 -7.4818407401847855e+00 -1.0557523426041586e+01 0 0 0
1104 368 1 4.1699999999999998e-01 -6.4646162583889604e+00 -8.3434802404305497e+00 -1.0955010731631631e+01 0 0 0
1539 513 1 4.1699999999999998e-01 -3.7262827496685995e+00 -2.2982149425378156e+00 -1.4121076587205929e+01 0 0 0
1549 517 1 4.1699999999999998e-01 -5.3960778421503059e+00 -6.0116669702595429e+00 -7.7540725097931409e+00 0 0 0
1550 517 2 -8.3399999999999996e-01 -4.7782355365235105e+00 -5.9542100956016339e+00 -7.0291593750767003e+00 0 0 0
1551 517 1 4.1699999999999998e-01 -5.0212039163765265e+00 -6.7507096494486714e+00 -6.5235909112884940e+00 0 0 0
1653 551 1 4.1699999999999998e-01 -3.1692161350683827e+00 -4.0412744059080454e+00 1.4509406234017858e+01 0 0 -1
1690 564 1 4.1699999999999998e-01 -4.9539264506897318e+00 -9.3342110640272420e+00 -1.2675481244965871e+01 0 0 0
1691 564 2 -8.3399999999999996e-01 -4.7037501158728166e+00 -8.4625346757614608e+00 -1.3026342371430061e+01 0 0 0
1692 564 1 4.1699999999999998e-01 -5.2053905522257109e+00 -8.4327714042010058e+00 -1.3878611485165832e+01 0 0 0
2179 727 1 4.1699999999999998e-01 -9.3619000920658824e+00 -6.7426195069753350e+00 -1.3320718589101110e+01 0 0 0
2180 727 2 -8.3399999999999996e-01 -9.1914081340373066e+00 -6.2076088170066956e+00 -1.4090773447381221e+01 0 0 0
2181 727 1 4.1699999999999998e-01 -8.2738589318125424e+00 -5.8840227774040015e+00 -1.3923987269912439e+01 0 0 0
2573 858 2 -8.3399999999999996e-01 -1.0365217808299853e+01 -4.6596784182175863e+00 -1.1475912054905393e+01 0 0 0
2574 858 1 4.1699999999999998e-01 -1.0702516509468884e+01 -5.5854239392004219e+00 -1.1605772265962889e+01 0 0 0
457 153 1 4.1699999999999998e-01 3.0078538436823372e+00 -4.9777514109596730e+00 -1.2352998746012162e+01 0 0 0
466 156 1 4.1699999999999998e-01 3.6723387926495907e+00 -7.0145466781251837e+00 1.4713747684808443e+01 0 0 -1
467 156 2 -8.3399999999999996e-01 3.5788416802012990e+00 -6.1712684307252497e+00 -1.4786914345700858e+01 0 0 0
496 166 1 4.1699999999999998e-01 -4.2384373101518591e+00 -4.5743525041146089e+00 -1.2987074647368615e+01 0 0 0
497 166 2 -8.3399999999999996e-01 -3.9099492266118356e+00 -4.5753302368632474e+00 -1.2078534394107903e+01 0 0 0
498 166 1 4.1699999999999998e-01 -3.3355864792949301e+00 -3.7936478110470215e+00 -1.2088173771845643e+01 0 0 0
1612 538 1 4.1699999999999998e-01 -2.3926499701419482e-01 -6.3075284522188024e+00 -1.1216001068418491e+01 0 0 0
1613 538 2 -8.3399999999999996e-01 -4.0326327312155668e-03 -5.3756354183782946e+00 -1.1452631795553730e+01 0 0 0
1644 548 1 4.1699999999999998e-01 -9.3245748844803189e-01 -3.6038935799168241e+00 -4.7646088246657587e+00 0 0 0
1651 551 1 4.1699999999999998e-01 -3.0059109904525432e+00 -5.4741569645511188e+00 1.4955137261521953e+01 0 0 -1
1652 551 2 -8.3399999999999996e-01 -3.5210105837319032e+00 -4.7019410162051392e+00 -1.4853708800756547e+01 0 0 0
1984 662 1 4.1699999999999998e-01 -1.3109756466681883e+00 -6.7328537534975652e+00 -9.1056136923602615e+00 0 0 0
1985 662 2 -8.3399999999999996e-01 -1.1316791970590916e+00 -7.4670646694362510e+00 -9.7201288362985920e+00 0 0 0
1986 662 1 4.1699999999999998e-01 -1.8414151173228377e+00 -7.3252043689192439e+00 -1.0370716053470696e+01 0 0 0
2329 777 1 4.1699999999999998e-01 -1.2049806347247589e+00 -6.4446031005262059e+00 -1.4494719805064154e+01 0 0 0
2330 777 2 -8.3399999999999996e-01 -4.7643289053157295e-01 -5.9271449820750535e+00 -1.4118140002802129e+01 0 0 0
2331 777 1 4.1699999999999998e-01 -2.4610599498314806e-01 -5.2793532907064922e+00 -1.4787498435588569e+01 0 0 0
2518 840 1 4.1699999999999998e-01 -3.8831384140885072e+00 -5.6820875944532174e+00 -9.5110165891971246e+00 0 0 0
2519 840 2 -8.3399999999999996e-01 -4.7999065481535137e+00 -5.6438759771279612e+00 -9.8093960943817429e+00 0 0 0
2520 840 1 4.1699999999999998e-01 -4.6994409070759744e+00 -5.1838978555762907e+00 -1.0671602595507901e+01 0 0 0
100 34 1 4.1699999999999998e-01 3.6780363706148562e+00 -7.3005681727873002e+00 -1.1536011967260329e+01 0 0 0
101 34 2 -8.3399999999999996e-01 4.0268753950151455e+00 -6.4235353421372618e+00 -1.1828556328634258e+01 0 0 0
102 34 1 4.1699999999999998e-01 4.8832419056161633e+00 -6.3401865699585409e+00 -1.1374649725066988e+01 0 0 0
458 153 2 -8.3399999999999996e-01 2.6487517173246546e+00 -4.2000058217149601e+00 -1.2784231605745745e+01 0 0 0
459 153 1 4.1699999999999998e-01 2.7064161704917140e+00 -4.4220098192008086e+00 -1.3732313315405049e+01 0 0 0
468 156 1 4.1699999999999998e-01 3.9045994849566177e+00 -6.4453072343688529e+00 -1.3898038946010102e+01 0 0 0
475 159 1 4.1699999999999998e-01 1.0906762621593440e+01 -5.6043827108682409e+00 -1.1732739800400513e+01 0 0 0
476 159 2 -8.3399999999999996e-01 1.0383110359592392e+01 -4.8325879213185035e+00 -1.1457548202195968e+01 0 0 0
940 314 1 4.1699999999999998e-01 6.5908756819366072e+00 -9.4005532268170189e+00 -1.0674539285979817e+01 0 0 0
941 314 2 -8.3399999999999996e-01 7.4590696905243918e+00 -9.5616029005868803e+00 -1.1084125838142254e+01 0 0 0
942 314 1 4.1699999999999998e-01 7.2790697686240211e+00 -1.0442129716036932e+01 -1.1521230517716447e+01 0 0 0
1145 382 2 -8.3399999999999996e-01 7.6289478222593292e+00 -6.7381022906473387e+00 -1.1513079103139628e+01 0 0 0
1306 436 1 4.1699999999999998e-01 6.9329759788190701e+00 -2.9170190964384677e+00 -9.9582200922928088e+00 0 0 0
1307 436 2 -8.3399999999999996e-01 7.1034947120225249e+00 -3.8318628533444312e+00 -9.7226053584046266e+00 0 0 0
1308 436 1 4.1699999999999998e-01 6.2077770925665314e+00 -4.2071978751791397e+00 -9.7273082209474708e+00 0 0 0
1674 558 1 4.1699999999999998e-01 8.6323423942317827e+00 -8.9137731816696473e+00 -1.2309424109657895e+01 0 0 0
2090 697 2 -8.3399999999999996e-01 5.3118251121878597e+00 -1.7949247493941203e+00 -1.0853493672179171e+01 0 0 0
2091 697 1 4.1699999999999998e-01 4.9820941985261680e+00 -1.6293461730021621e+00 -1.1748931320459555e+01 0 0 0
2197 733 1 4.1699999999999998e-01 8.8496493995784515e+00 -3.1141230189141629e+00 -1.4247085602069319e+01 0 0 0
2198 733 2 -8.3399999999999996e-01 8.1251228670985292e+00 -3.3604205864797256e+00 -1.3704816714349350e+01 0 0 0
2323 775 1 4.1699999999999998e-01 6.6123451802693838e+00 -7.7943733866119667e+00 -1.2970006414126861e+01 0 0 0
2324 775 2 -8.3399999999999996e-01 6.1756077801989315e+00 -7.7603047034130705e+00 -1.3825552488637447e+01 0 0 0
2325 775 1 4.1699999999999998e-01 6.8267806903943944e+00 -7.3180313440530078e+00 -1.4379374744652115e+01 0 0 0
262 88 1 4.1699999999999998e-01 1.2029711696817520e+01 -5.9021414645580128e+00 -1.4022545804207311e+01 0 0 0
263 88 2 -8.3399999999999996e-01 1.1855331246795084e+01 -6.3696996514962629e+00 -1.3172641699936722e+01 0 0 0
264 88 1 4.1699999999999998e-01 1.1717254765017000e+01 -7.2531338359959525e+00 -1.3454343150520614e+01 0 0 0
477 159 1 4.1699999999999998e-01 9.9844437752380948e+00 -4.5675584155826110e+00 -1.2295433219576655e+01 0 0 0
1089 363 1 4.1699999999999998e-01 -1.4712803502128779e+01 -3.4876255826904567e+00 -9.5401237185208334e+00 1 0 0
1162 388 1 4.1699999999999998e-01 1.4126219790724695e+01 -7.3748220402871532e+00 -9.2818598098853915e+00 0 0 0
1163 388 2 -8.3399999999999996e-01 1.3786005984798130e+01 -7.8862371622126357e+00 -1.0035973396725556e+01 0 0 0
1164 388 1 4.1699999999999998e-01 1.3899271313089059e+01 -7.2465358279119707e+00 -1.0772497469008036e+01 0 0 0
1672 558 1 4.1699999999999998e-01 1.0028603206866578e+01 -9.3655848507953028e+00 -1.2385153732784596e+01 0 0 0
1673 558 2 -8.3399999999999996e-01 9.3238491099433549e+00 -9.0434303561387708e+00 -1.2960913173161655e+01 0 0 0
2149 717 1 4.1699999999999998e-01 1.0179209310604477e+01 -1.0742004594017788e+01 -1.4157290391513667e+01 0 0 0
2275 759 1 4.1699999999999998e-01 1.4670237515693124e+01 -6.9863190307580592e+00 -1.4885882240355475e+01 0 0 0
2276 759 2 -8.3399999999999996e-01 1.4468047648640971e+01 -7.7840013374069876e+00 -1.4374674198558388e+01 0 0 0
2277 759 1 4.1699999999999998e-01 1.3817766494265118e+01 -8.2337132026081257e+00 -1.4942450437136351e+01 0 0 0
2626 876 1 4.1699999999999998e-01 1.4222283558045753e+01 -6.8725896529431942e+00 -1.2607352451415807e+01 0 0 0
2627 876 2 -8.3399999999999996e-01 1.4754846116482366e+01 -6.3734492978256796e+00 -1.1957255670560857e+01 0 0 0
2628 876 1 4.1699999999999998e-01 -1.4449266786989579e+01 -6.1657777097635087e+00 -1.2492904931764826e+01 1 0 0
2662 888 1 4.1699999999999998e-01 1.4551531214711805e+01 -9.6787715305467117e+00 -1.0238210557091094e+01 0 0 0
2663 888 2 -8.3399999999999996e-01 -1.4889213304361977e+01 -1.0450893657634204e+01 -1.0511787776190319e+01 1 0 0
2664 888 1 4.1699999999999998e-01 -1.4716358686835742e+01 -1.0194991970874264e+01 -1.1425165992482215e+01 1 0 0
721 241 1 4.1699999999999998e-01 -1.3236416109185011e+01 -3.9693177476293258e+00 -1.3242783877875913e+01 0 0 0
722 241 2 -8.3399999999999996e-01 -1.3266928739902069e+01 -4.9342945896672106e+00 -1.3378215490498427e+01 0 0 0
723 241 1 4.1699999999999998e-01 -1.2871203019254896e+01 -5.2500010454723611e+00 -1.2551211079030963e+01 0 0 0
1091 364 2 -8.3399999999999996e-01 -8.4302377695555730e+00 -1.2996122147647571e+00 -1.4540549490016227e+01 0 0 0
1092 364 1 4.1699999999999998e-01 -8.4525299887545398e+00 -3.4010768876069375e-01 -1.4554534457933059e+01 0 0 0
1105 369 1 4.1699999999999998e-01 -9.0150348611724542e+00 1.8567748552356728e-01 1.3049325769210075e+01 0 0 -1
1106 369 2 -8.3399999999999996e-01 -8.0337828650824630e+00 1.8772866169051494e-01 1.3011605292268028e+01 0 0 -1
1319 440 2 -8.3399999999999996e-01 -1.3546733056356256e+01 -1.9271572297460144e+00 -9.8420286061378359e+00 0 0 0
1345 449 1 4.1699999999999998e-01 -8.8627553331820863e+00 4.1512478657477532e+00 -9.9308048590347973e+00 0 0 0
1744 582 1 4.1699999999999998e-01 -9.3464705010923304e+00 7.3974538503143439e-01 -1.1772087759003572e+01 0 0 0
1745 582 2 -8.3399999999999996e-01 -9.9287426658896045e+00 1.0789438348203337e+00 -1.1066824038564413e+01 0 0 0
1746 582 1 4.1699999999999998e-01 -9.4504661392064424e+00 1.8537990080393167e+00 -1.0726708432104928e+01 0 0 0
1753 585 1 4.1699999999999998e-01 -9.2068337415421482e+00 -1.6594815729842682e+00 -1.1446286833459874e+01 0 0 0
1754 585 2 -8.3399999999999996e-01 -9.9595077353525703e+00 -1.8746761315478249e+00 -1.1991881388374136e+01 0 0 0
1879 627 1 4.1699999999999998e-01 -1.1677741582450764e+01 -2.3262342902458157e+00 -1.2178091637715930e+01 0 0 0
1880 627 2 -8.3399999999999996e-01 -1.2641311247100822e+01 -2.3274899782892224e+00 -1.2343322138062707e+01 0 0 0
1881 627 1 4.1699999999999998e-01 -1.2798252776981952e+01 -1.4005420564921196e+00 -1.2585990983912955e+01 0 0 0
2137 713 1 4.1699999999999998e-01 -1.2471900438614462e+01 -5.4016986587598403e-01 -1.4250004060390845e+01 0 0 0
2138 713 2 -8.3399999999999996e-01 -1.2708782366384316e+01 -1.4925386544619754e-02 -1.3454679265686924e+01 0 0 0
2139 713 1 4.1699999999999998e-01 -1.2231029973227074e+01 8.0899825783543311e-01 -1.3609762600617145e+01 0 0 0
2547 849 1 4.1699999999999998e-01 -1.1674267935241890e+01 -2.6689123327177735e+00 1.4805154499284034e+01 0 0 -1
280 94 1 4.1699999999999998e-01 -8.1047793333775022e+00 -2.2381640744334326e+00 -8.8239204529756261e+00 0 0 0
691 231 1 4.1699999999999998e-01 -9.2294357638267073e+00 4.1134241709662023e+00 -1.4375112488946712e+01 0 0 0
692 231 2 -8.3399999999999996e-01 -9.6619782735566453e+00 3.4192326867882175e+00 -1.3853634637584308e+01 0 0 0
693 231 1 4.1699999999999998e-01 -9.8080612375437983e+00 3.8127326027790094e+00 -1.2970264553948686e+01 0 0 0
757 253 1 4.1699999999999998e-01 -1.3183606072558285e+00 -3.4026244347800794e+00 -1.2599512868052498e+01 0 0 0
758 253 2 -8.3399999999999996e-01 -1.8857951380537126e+00 -2.6976708902420401e+00 -1.2239519782246518e+01 0 0 0
759 253 1 4.1699999999999998e-01 -1.5087650229043796e+00 -1.8796924926135037e+00 -1.2581191401754960e+01 0 0 0
1006 336 1 4.1699999999999998e-01 -4.4218810029599407e+00 1.7329600432433205e+00 -1.1520788334041820e+01 0 0 0
1007 336 2 -8.3399999999999996e-01 -5.0526350984010255e+00 1.6222706324549585e+00 -1.0784856396182258e+01 0 0 0
1008 336 1 4.1699999999999998e-01 -4.6676443411619308e+00 2.2634098219336183e+00 -1.0172207625011067e+01 0 0 0
1058 353 2 -8.3399999999999996e-01 -3.7492786442312100e+00 4.3182373935994498e+00 -9.5306486041436518e+00 0 0 0
1059 353 1 4.1699999999999998e-01 -3.1984027207887649e+00 4.3490077825655815e+00 -8.7093995147486112e+00 0 0 0
1107 369 1 4.1699999999999998e-01 -7.8829582400198319e+00 -7.7870176238884126e-01 1.2850482504596282e+01 0 0 -1
1346 449 2 -8.3399999999999996e-01 -8.3100814825637634e+00 3.4094568613744665e+00 -1.0239785280786858e+01 0 0 0
1347 449 1 4.1699999999999998e-01 -7.4917345205888912e+00 3.8505687931636423e+00 -1.0526982883144989e+01 0 0 0
1348 450 1 4.1699999999999998e-01 -7.2055535115589047e+00 1.2831554712384339e+00 -1.2644119249270744e+01 0 0 0
1349 450 2 -8.3399999999999996e-01 -7.2349590121157599e+00 4.4231986227906689e-01 -1.2187233016166401e+01 0 0 0
1350 450 1 4.1699999999999998e-01 -6.3586297506875757e+00 4.2016921254726519e-01 -1.1741647044932755e+01 0 0 0
1537 513 1 4.1699999999999998e-01 -5.0682116245505817e+00 -2.2332274191813895e+00 -1.4764934805116438e+01 0 0 0
1538 513 2 -8.3399999999999996e-01 -4.4939378242273564e+00 -1.7216302872052562e+00 -1.4189204785364717e+01 0 0 0
1591 531 1 4.1699999999999998e-01 -5.0231620294431112e+00 -1.4210042938575115e-01 -9.9579771147458942e+00 0 0 0
1592 531 2 -8.3399999999999996e-01 -5.2305607443268149e+00 -1.0134371496008752e+00 -9.5664204561948054e+00 0 0 0
1593 531 1 4.1699999999999998e-01 -4.7313018560898445e+00 -1.6113878862168283e+00 -1.0124792754910519e+01 0 0 0
1755 585 1 4.1699999999999998e-01 -1.0078141892478769e+01 -2.8168632321277398e+00 -1.1803991064580073e+01 0 0 0
2263 755 1 4.1699999999999998e-01 -9.7365319883560879e+00 1.7171215365341450e+00 -1.4647633434261721e+01 0 0 0
2264 755 2 -8.3399999999999996e-01 -1.0248981028811661e+01 8.8587777151207525e-01 -1.4704845577976648e+01 0 0 0
376 126 1 4.1699999999999998e-01 2.6732308842996115e+00 1.0419915483148550e+00 -1.1580910379701123e+01 0 0 0
377 126 2 -8.3399999999999996e-01 2.1014807481936484e+00 4.1819308795284704e-01 -1.2059241226167863e+01 0 0 0
378 126 1 4.1699999999999998e-01 2.6868991445800758e+00 -4.5312441215262469e-02 -1.2663907972758130e+01 0 0 0
609 203 1 4.1699999999999998e-01 2.5936234854276878e+00 -3.4783849478387805e+00 -1.0447041707549767e+01 0 0 0
1614 538 1 4.1699999999999998e-01 1.5513956806147228e-01 -5.4108641061897940e+00 -1.2410820825512126e+01 0 0 0
1645 549 1 4.1699999999999998e-01 3.1198876643149722e+00 4.0220528219794440e+00 -1.1875313312463227e+01 0 0 0
1646 549 2 -8.3399999999999996e-01 2.8903311903863815e+00 3.1510478869983904e+00 -1.1525159139083030e+01 0 0 0
1647 549 1 4.1699999999999998e-01 3.5327991811258181e+00 3.0394432327144600e+00 -1.0783668299384301e+01 0 0 0
1738 580 1 4.1699999999999998e-01 1.5525699050049786e+00 -1.1448335828848644e+00 -1.2508183949863625e+01 0 0 0
1739 580 2 -8.3399999999999996e-01 1.1581724364103803e+00 -1.8858665559912604e+00 -1.3001099365819334e+01 0 0 0
1740 580 1 4.1699999999999998e-01 1.8512529263575377e+00 -2.5473092045129300e+00 -1.3027132994512447e+01 0 0 0
1981 661 1 4.1699999999999998e-01 -3.8010388348433053e+00 4.2758514936914516e-01 -1.3597799198212664e+01 0 0 0
1982 661 2 -8.3399999999999996e-01 -3.3081627661768485e+00 1.0431690913373541e+00 -1.3056733247534442e+01 0 0 0
1983 661 1 4.1699999999999998e-01 -2.4521908560258865e+00 5.9229307755029403e-01 -1.2906382157349642e+01 0 0 0